[Molden Format]
[Molpro variables]
_NUMVAR=  791.0000000000000    
_AVOGAD= 0.6022136736000000E+24
_BOLTZ= 0.1380658000000000E-22
_CLIGHT=  29979245800.00000    
_EV2006= 0.3674930886769165E-01
_EV= 0.3674932534394180E-01
_ENULL= 0.8854187817000000E-11
_KJOULE= 0.3808798324128737E-03
_KJOULE/MOL= 0.3808798324128737E-03
_CM= 0.4556335267302901E-05
_CM-1= 0.4556335267302901E-05
_DEB2SI= 0.3335641000000000E-29
_AMU2AU=  1822.888390000000    
_KCAL= 0.1593601117815568E-02
_KCAL/MOL= 0.1593601117815568E-02
_KELVIN2006= 0.3166828861084835E-05
_KELVIN= 0.3166814820820034E-05
_JOULE= 0.4359748200000000E-17
_HERTZ2006= 0.1519829850815779E-15
_HERTZ= 0.1519829846011223E-15
_HZ2006= 0.1519829850815779E-15
_HZ= 0.1519829846011223E-15
_JPCAL=  4.184000000000000    
_PLANCK= 0.6626075540000000E-33
_TOA2006= 0.5291772490000000    
_TOA= 0.5291772090000000    
_TOANG2006= 0.5291772490000000    
_TOANG= 0.5291772090000000    
_TORAD= 0.1745329251994330E-01
_TOCM=  219474.6306700000    
_TODEBYE=  2.541580000000000    
_TOEV2006=  27.21139610000000    
_TOE= 0.4803242000000000E-09
_TOEV=  27.21138390000000    
_TOHERTZ2006=  6579683899900000.    
_TOHERTZ=  6579683920700000.    
_TOHZ2006=  6579683899900000.    
_TOHZ=  6579683920700000.    
_TOK2006=  315773.3000000000    
_TOK=  315774.7000000000    
_TOKCAL=  627.5096000000000    
_TOKELVIN2006=  315773.3000000000    
_TOKELVIN=  315774.7000000000    
_TOKJ=  2625.500000000000    
_TOKJOULE=  2625.500000000000    
_TOKG= 0.1660565586000000E-26
_ANG2006=  1.889725988578923    
_ANG=  1.889726131421507    
_ANGSTROM2006=  1.889725988578923    
_ANGSTROM=  1.889726131421507    
_RPAREF=  0.000000000000000    
_RPADISS=  0.000000000000000    
_IGNORE_UNDEF=  2.000000000000000    
_STRICTCHECK=  0.000000000000000    
_SEW_ONEEL=  0.000000000000000    
_CPPDONE=FALSE
_DKROLL_DONE=  0.000000000000000    
_FOCKDONE=TRUE
_GRADONE=FALSE
_HESSDONE=FALSE
_INTDONE=TRUE
_SCFDONE=TRUE
_MODUL_BLOCK=FALSE
_MODUL_CUDA=FALSE
_MODUL_SLATER=FALSE
_MODUL_MRCC=FALSE
_MODUL_NBO6=FALSE
_MODUL_NECI=TRUE
_MODUL_AIMS=TRUE
_MRCC_EXEC=
_FITC_AO_SAVED=FALSE
_FITC_MO_SAVED=FALSE
_SHARED_FS=TRUE
_LSTYP=SEWARD
_INTYP=INTS
_GEOMTYP=ZMAT
_GRADTYP=ALASKA
_DIRECT=FALSE
_DKHO= -1.000000000000000    
_SYNCM=  0.000000000000000    
_BASIS=USERDEF
_ZUNIT=ANG
_ZORIENT=  1.000000000000000    
_NELEC=  9.000000000000000    
!SPIN=  1.000000000000000    
_QSDSTEP=  0.000000000000000    
_QSDIRC=  0.000000000000000    
_PROGRAM=MULTI
_CPUSTEP= 0.3200000000000000    
_SYSSTEP= 0.2700000000000000    
_WALLSTEP=  1.290000000000000    
!DFSCF=  0.000000000000000    
!SCSGRD=  0.000000000000000    
_BASINP=  610.0000000000000    
_CPUTOT= 0.5399999999999999    
_DFTEXFAC=  1.000000000000000    
_DMX=  0.000000000000000    
_DMY=  0.000000000000000    
_DMZ=  0.000000000000000    
_DMX_SCF=  0.000000000000000    
_DMY_SCF=  0.000000000000000    
_DMZ_SCF=  0.000000000000000    
_EHOMO=-0.9032865318382324    
_ELUMO=-0.6967629530064023E-01
_ENERGY= -39.77086356824118    
_ENUC=  13.47246888034246    
_EPS1= -11.59290909692674    
_EPS2=-0.8327059122062113    
_EPS3=-0.8327059117858515    
_EPS4=-0.8327072389514484    
_GRADEXFAC=  9999.000000000000    
_GRADMETHOD=TRUE
_NMRMETHOD=  0.000000000000000    
!GRID_FREEZE= -1.000000000000000    
_ITERATIONS=  3.000000000000000    
_LASTNELEC=  7.000000000000000    
_LASTSPIN=  1.000000000000000    
_LASTSYM=  2.000000000000000    
_MPP_PROG=  0.000000000000000    
_NPROC_MPP=  1.000000000000000    
_NPROC_MPPX=  1.000000000000000    
_NPROC_SMP=  1.000000000000000    
_NUMSTEP=  0.000000000000000    
_ORBITAL=  2140.200000000000    
_PI=  3.141592653589793    
!MCACT=  2.000000000000000    
!MCCLOSED=  1.000000000000000    
!MCFREEZE=  0.000000000000000    
!MCMS2=  1.000000000000000    
!MCNEL=  7.000000000000000    
!MCNSTSYM=  3.000000000000000    
!MCSTATE=  1.000000000000000    
!MCSYM=  2.000000000000000    
!MCWEIGHT= 0.3333333333333333    
_SEIG_MIN= 0.2299994070952574E-01
_SEWPROP=TRUE
_STATUS=  1.000000000000000    
_SYSTOT= 0.4500000000000000    
_VERSION=  2012001.000000000    
_WALLTOT=  1.930000000000000    
_DATE=06-Apr-23
_LASTORB=MCSCF
_MACHINE=Linux-3.10.0-1160.66.1.el7.x86_64/zuphux.cerit-sc.cz(x86_64) 64 bit serial version
_OUTPUT=/mnt/storage-brno12-cerit/nfs4/home/jacob/tmp/ch4/target.molpro.xml
_PGROUP=D2
_TIME=09:23:11
_LIBMOL=/afs/ics.muni.cz/software/molpro-2012.1/molprop_2012_1_Linux_x86_64_i8/lib/
!VIBCNT=  0.000000000000000    
!RGHFCNT=  0.000000000000000    
!SURFREC=  0.000000000000000    
!POLYREC=  0.000000000000000    
!DIPREC=  0.000000000000000    
!VSCFREC=  0.000000000000000    
!VCIREC=  0.000000000000000    
!PVCIREC=  0.000000000000000    
!VMP2REC=  0.000000000000000    
!VMCSCFREC=  0.000000000000000    
!VMRCIREC=  0.000000000000000    
!VIBINFO=  0.000000000000000    
!GAREC=  0.000000000000000    
!SCFORB=  21012.00000000000    
!MCORB=  21402.00000000000    
!NEWMOL= -1.000000000000000    
!NEWSYM= -1.000000000000000    
_SLFILES=slscratch
_NGSSTO=  9.000000000000000    
_SIN=SIN
_COS=COS
_TAN=TAN
_ACOS=ACOS
_ASIN=ASIN
_ATAN=ATAN
_COSH=COSH
_SINH=SINH
_TANH=TANH
_ABS=ABS
_MOD=MOD
_ERF=ERF
_REFC=REFC
_ERFC=ERFC
_HYPOT=HYPOT
_J0=J0
_J1=J1
_JN=JN
_GAMMA=GAMMA
_LGAMMA=LGAMMA
_Y0=Y0
_Y1=Y1
_YN=YN
_EXP=EXP
_LOG=LOG
_LOG10=LOG10
_SQRT=SQRT
_INT=INT
_NINT=NINT
_MAX=MAX
_MIN=MIN
_COSMO=  0.000000000000000    
_COSMOIT=  0.000000000000000    
_COSMOES=  0.000000000000000    
_COSMOEDS=  0.000000000000000    
_COSMOEC=  0.000000000000000    
_COSMOEDCORR=  0.000000000000000    
_FEPSI=  1.000000000000000    
_SL_IsMM=  0.000000000000000    
_SL_NSYM=  4.000000000000000    
_SL_System_BitSw=  0.000000000000000    
_SL_Unique_atoms=  0.000000000000000    
_SL_GRAD=  0.000000000000000    
_SL_MAXUPD_Hess=  5.000000000000000    
_SL_N_PRINT_COD=  5.000000000000000    
_SL_PRINT_CODES=  0.000000000000000    
_SL_BasType=  0.000000000000000    
_SL_Energy_Pred=  0.000000000000000    
_SL_New_Coords=  0.000000000000000    
_SL_Total_Nuclea=  0.000000000000000    
_SL_Highest_Mltp=  0.000000000000000    
_SL_Ref_Geom=  0.000000000000000    
_SL_Symmetry_ope=  1.000000000000000    
_SL_agrad=  0.000000000000000    
_SL_GrdMax=  0.000000000000000    
_SL_GrdNorm=  0.000000000000000    
_SL_GrdRMS=  0.000000000000000    
!LATTICE= -1.000000000000000    
!NEWLATTICE=  0.000000000000000    
!LATGRAD_VAR=FALSE
!SEW_LATTICE=  1.000000000000000    
!LOCAL=  0.000000000000000    
!SAVEDOM= -1.000000000000000    
!RESTDOM= -1.000000000000000    
!SAVEDOM_HF= -1.000000000000000    
!RESTDOM_HF= -1.000000000000000    
!HESSREC=  0.000000000000000    
!FREQREC=  0.000000000000000    
!NMODREC=  0.000000000000000    
!GTASKS=  0.000000000000000    
!HTASKS=  0.000000000000000    
!THRCHG= 0.1000000000000000    
!DEBUG= -1.000000000000000    
!CFIT_CPHF=  0.000000000000000    
!RDOMAUX_CPHF=  3.000000000000000    
!THRAO_CPHF= 0.1000000000000000E-09
!THRMO_CPHF= 0.1000000000000000E-08
!THROV_CPHF= 0.1000000000000000E-11
!THRSW_CPHF= 0.1000000000000000E-09
!THRPROD_CPHF= 0.1000000000000000E-08
!THRAOPR_CPHF= 0.1000000000000000E-11
!CFIT_SCFGRD=  0.000000000000000    
!RDOMAUX_SCFGRD=  5.000000000000000    
!THRAO_SCFGRD= 0.1000000000000000E-09
!THRMO_SCFGRD= 0.1000000000000000E-08
!THROV_SCFGRD= 0.1000000000000000E-11
!THRSW_SCFGRD= 0.1000000000000000E-09
!THRPROD_SCFGRD= 0.1000000000000000E-08
!THRAOPR_SCFGRD= 0.1000000000000000E-11
!LOCFIT_SCF=  0.000000000000000    
!LOCFIT_MP2= -1.000000000000000    
_RIDOM=  0.000000000000000    
!CC2_METHOD=  0.000000000000000    
_BASIS2006=FALSE
_SVDDEL= -1.000000000000000    
_SVDDELA= -1.000000000000000    
_SVDDELP= -1.000000000000000    
_SVDDELF= -1.000000000000000    
_SVDDELS= -1.000000000000000    
_SVDDEL_ABS= -1.000000000000000    
_SVDDELA_ABS= -1.000000000000000    
_SVDDELP_ABS= -1.000000000000000    
_SVDDELF_ABS= -1.000000000000000    
_SVDDELS_ABS= -1.000000000000000    
_MAXBASIS=  0.000000000000000    
!OPT_CONICAL=  0.000000000000000    
!CLEARSP_JGRID=  0.000000000000000    
_4EXT_NDISKS=  1.000000000000000    
!ZMP=  0.000000000000000    
_MAXIT_ZMP=  500.0000000000000    
_MAXDIS_ZMP=  100.0000000000000    
_ACCU_ZMP=  14.00000000000000    
_SHIFTA_ZMP= -100.0000000000000    
!EMBEDFLAG=  1.000000000000000    
!EMBED=FALSE
!EMBED_F12=FALSE
!EMBEDNUC=  0.000000000000000    
_EMBEDENERGY=  0.000000000000000    
_KSPACETIME=  0.000000000000000    
_RSPACETIME=  0.000000000000000    
!EMBED_DFC=FALSE
!NUM_VOIDS=  0.000000000000000    
_IBODY=  0.000000000000000    
_EMBE_TOTAL=  0.000000000000000    
_EMBE_HF=  0.000000000000000    
_EMBE_CORR=  0.000000000000000    
!EDFT=  0.000000000000000    
_IFASTLATGRAD=  0.000000000000000    
_SINDEX=  0.000000000000000    
METHOD=CASSCF
GX1=  0.000000000000000    
GY1=  0.000000000000000    
GZ1=  0.000000000000000    
GX2=  1.185952246858765    
GY2=  1.185952246858765    
GZ2=  1.185957160146706    
GX3= -1.185952246858765    
GY3= -1.185952246858765    
GZ3=  1.185957160146706    
GX4= -1.185952246858765    
GY4=  1.185952246858765    
GZ4= -1.185957160146706    
GX5=  1.185952246858765    
GY5= -1.185952246858765    
GZ5= -1.185957160146706    
_TRDMX=  0.000000000000000    
_TRDMY=  0.000000000000000    
_TRDMZ= 0.3700743889363670    
[Atoms] Angs
C     1    6         0.0000000000        0.0000000000        0.0000000000
H     2    1         0.6275789000        0.6275789000        0.6275815000
H     3    1        -0.6275789000       -0.6275789000        0.6275815000
H     4    1        -0.6275789000        0.6275789000       -0.6275815000
H     5    1         0.6275789000       -0.6275789000       -0.6275815000
[GTO]
  1 0
 s    8  1.00
  0.6665000000D+04  0.6915839628D-03
  0.1000000000D+04  0.5325796153D-02
  0.2280000000D+03  0.2706072104D-01
  0.6471000000D+02  0.1016568461D+00
  0.2106000000D+02  0.2745748236D+00
  0.7495000000D+01  0.4482943189D+00
  0.2797000000D+01  0.2849026107D+00
  0.5215000000D+00  0.1519485921D-01
 s    8  1.00
  0.6665000000D+04 -0.2932696527D-03
  0.1000000000D+04 -0.2318035474D-02
  0.2280000000D+03 -0.1149978604D-01
  0.6471000000D+02 -0.4682672701D-01
  0.2106000000D+02 -0.1284661688D+00
  0.7495000000D+01 -0.3012662725D+00
  0.2797000000D+01 -0.2556307023D+00
  0.5215000000D+00  0.1093793361D+01
 s    1  1.00
  0.1596000000D+00  0.1000000000D+01
 p    3  1.00
  0.9439000000D+01  0.5697925159D-01
  0.2002000000D+01  0.3132072115D+00
  0.5456000000D+00  0.7603767417D+00
 p    1  1.00
  0.1517000000D+00  0.1000000000D+01
 d    1  1.00
  0.5500000000D+00  0.1000000000D+01
  
  2 0
 s    3  1.00
  0.1301000000D+02  0.3349872639D-01
  0.1962000000D+01  0.2348008012D+00
  0.4446000000D+00  0.8136829579D+00
 s    1  1.00
  0.1220000000D+00  0.1000000000D+01
 p    1  1.00
  0.7270000000D+00  0.1000000000D+01
  
  3 0
 s    3  1.00
  0.1301000000D+02  0.3349872639D-01
  0.1962000000D+01  0.2348008012D+00
  0.4446000000D+00  0.8136829579D+00
 s    1  1.00
  0.1220000000D+00  0.1000000000D+01
 p    1  1.00
  0.7270000000D+00  0.1000000000D+01
  
  4 0
 s    3  1.00
  0.1301000000D+02  0.3349872639D-01
  0.1962000000D+01  0.2348008012D+00
  0.4446000000D+00  0.8136829579D+00
 s    1  1.00
  0.1220000000D+00  0.1000000000D+01
 p    1  1.00
  0.7270000000D+00  0.1000000000D+01
  
  5 0
 s    3  1.00
  0.1301000000D+02  0.3349872639D-01
  0.1962000000D+01  0.2348008012D+00
  0.4446000000D+00  0.8136829579D+00
 s    1  1.00
  0.1220000000D+00  0.1000000000D+01
 p    1  1.00
  0.7270000000D+00  0.1000000000D+01
 
 
[MO]
 Sym=      1.1
 Ene=     -11.5929
 Spin= Alpha
 Occup=    2.000000
1 1.00259192023747
2 0.001423913618270
3 -0.010698394610114
4 0.0
5 0.0
6 0.0
7 0.0
8 0.0
9 0.0
10 -0.000000003481332
11 -0.000000003496317
12 0.000000006977649
13 0.0
14 0.0
15 0.0
16 -0.001850418266678
17 0.001159166728191
18 0.000443535403946
19 0.000443535403425
20 0.000443533888941
21 -0.001850418266678
22 0.001159166728191
23 -0.000443535403946
24 -0.000443535403425
25 0.000443533888941
26 -0.001850418266678
27 0.001159166728191
28 -0.000443535403946
29 0.000443535403425
30 -0.000443533888941
31 -0.001850418266678
32 0.001159166728191
33 0.000443535403946
34 -0.000443535403425
35 -0.000443533888941
 Sym=      2.1
 Ene=      -1.2931
 Spin= Alpha
 Occup=    1.981146
1 -0.007259749950052
2 0.40748967487867
3 0.24991488911264
4 0.0
5 0.0
6 0.0
7 0.0
8 0.0
9 0.0
10 0.000000002353896
11 0.000000001922833
12 -0.000000004276729
13 0.0
14 0.0
15 0.0
16 0.18584805254580
17 0.008306234617516
18 -0.016097105421012
19 -0.016097105157567
20 -0.016097149348219
21 0.18584805254580
22 0.008306234617516
23 0.016097105421012
24 0.016097105157567
25 -0.016097149348219
26 0.18584805254580
27 0.008306234617516
28 0.016097105421012
29 -0.016097105157567
30 0.016097149348219
31 0.18584805254580
32 0.008306234617516
33 -0.016097105421012
34 0.016097105157567
35 0.016097149348219
 Sym=      1.4
 Ene=      -0.8327
 Spin= Alpha
 Occup=    1.648140
1 0.0
2 0.0
3 0.0
4 0.0
5 0.0
6 0.47600017709612
7 0.0
8 0.0
9 0.19191432557212
10 0.0
11 0.0
12 0.0
13 0.021685962690036
14 0.0
15 0.0
16 0.23535951073490
17 0.037761209724864
18 -0.013603264559370
19 -0.013603264085128
20 0.000364086772959
21 0.23535951073490
22 0.037761209724864
23 0.013603264559370
24 0.013603264085128
25 0.000364086772959
26 -0.23535951073490
27 -0.037761209724864
28 -0.013603264559370
29 0.013603264085128
30 0.000364086772959
31 -0.23535951073490
32 -0.037761209724864
33 0.013603264559370
34 -0.013603264085128
35 0.000364086772959
 Sym=      1.2
 Ene=      -0.8327
 Spin= Alpha
 Occup=    1.648140
1 0.0
2 0.0
3 0.0
4 0.47600050724086
5 0.0
6 0.0
7 0.19191501584385
8 0.0
9 0.0
10 0.0
11 0.0
12 0.0
13 0.0
14 0.0
15 0.021686051188835
16 0.23535946106519
17 0.037761442624990
18 0.000364148848673
19 -0.013603219574981
20 -0.013603275522037
21 -0.23535946106519
22 -0.037761442624990
23 0.000364148848673
24 -0.013603219574981
25 0.013603275522037
26 -0.23535946106519
27 -0.037761442624990
28 0.000364148848673
29 0.013603219574981
30 -0.013603275522037
31 0.23535946106519
32 0.037761442624990
33 0.000364148848673
34 0.013603219574981
35 0.013603275522037
 Sym=      1.3
 Ene=      -0.8327
 Spin= Alpha
 Occup=    1.648140
1 0.0
2 0.0
3 0.0
4 0.0
5 0.47600050831322
6 0.0
7 0.0
8 0.19191501165106
9 0.0
10 0.0
11 0.0
12 0.0
13 0.0
14 0.021686052610321
15 0.0
16 0.23535946060354
17 0.037761445986344
18 -0.013603219241885
19 0.000364149555666
20 -0.013603274798843
21 -0.23535946060354
22 -0.037761445986344
23 -0.013603219241885
24 0.000364149555666
25 0.013603274798843
26 0.23535946060354
27 0.037761445986344
28 0.013603219241885
29 0.000364149555666
30 0.013603274798843
31 -0.23535946060354
32 -0.037761445986344
33 0.013603219241885
34 0.000364149555666
35 -0.013603274798843
 Sym=      2.2
 Ene=       0.3763
 Spin= Alpha
 Occup=    0.019064
1 0.0
2 0.0
3 0.0
4 -0.98746940638668
5 0.0
6 0.0
7 -0.087212124623574
8 0.0
9 0.0
10 0.0
11 0.0
12 0.0
13 0.0
14 0.0
15 0.035072290072158
16 0.48320097146908
17 0.073162782219848
18 -0.019102823100075
19 -0.016481630791812
20 -0.016481824284821
21 -0.48320097146908
22 -0.073162782219848
23 -0.019102823100075
24 -0.016481630791812
25 0.016481824284821
26 -0.48320097146908
27 -0.073162782219848
28 -0.019102823100075
29 0.016481630791812
30 -0.016481824284821
31 0.48320097146908
32 0.073162782219848
33 -0.019102823100075
34 0.016481630791812
35 0.016481824284821
 Sym=      2.3
 Ene=       0.3763
 Spin= Alpha
 Occup=    0.019064
1 0.0
2 0.0
3 0.0
4 0.0
5 -0.98746947717892
6 0.0
7 0.0
8 -0.087212033790800
9 0.0
10 0.0
11 0.0
12 0.0
13 0.0
14 0.035072224947441
15 0.0
16 0.48320096593631
17 0.073162782277127
18 -0.016481639656319
19 -0.019102812942916
20 -0.016481826688927
21 -0.48320096593631
22 -0.073162782277127
23 -0.016481639656319
24 -0.019102812942916
25 0.016481826688927
26 0.48320096593631
27 0.073162782277127
28 0.016481639656319
29 -0.019102812942916
30 0.016481826688927
31 -0.48320096593631
32 -0.073162782277127
33 0.016481639656319
34 -0.019102812942916
35 -0.016481826688927
 Sym=      2.4
 Ene=       0.3763
 Spin= Alpha
 Occup=    0.019064
1 0.0
2 0.0
3 0.0
4 0.0
5 0.0
6 -0.98747124371323
7 0.0
8 0.0
9 -0.087212836347447
10 0.0
11 0.0
12 0.0
13 0.035072205578519
14 0.0
15 0.0
16 0.48320136997683
17 0.073162990078263
18 -0.016481636006935
19 -0.016481632293526
20 -0.019102941961929
21 0.48320136997683
22 0.073162990078263
23 0.016481636006935
24 0.016481632293526
25 -0.019102941961929
26 -0.48320136997683
27 -0.073162990078263
28 -0.016481636006935
29 0.016481632293526
30 -0.019102941961929
31 -0.48320136997683
32 -0.073162990078263
33 0.016481636006935
34 -0.016481632293526
35 -0.019102941961929
 Sym=      3.1
 Ene=       0.4668
 Spin= Alpha
 Occup=    0.017242
1 -0.39815783929495
2 -1.23165642692173
3 -0.22269240412656
4 0.0
5 0.0
6 0.0
7 0.0
8 0.0
9 0.0
10 -0.000000134780277
11 -0.000000082476846
12 0.000000217257123
13 0.0
14 0.0
15 0.0
16 0.54754294367954
17 0.072073711491324
18 -0.030428519835994
19 -0.030428511478165
20 -0.030428660554493
21 0.54754294367954
22 0.072073711491324
23 0.030428519835994
24 0.030428511478165
25 -0.030428660554493
26 0.54754294367954
27 0.072073711491324
28 0.030428519835994
29 -0.030428511478165
30 0.030428660554493
31 0.54754294367954
32 0.072073711491324
33 -0.030428519835994
34 0.030428511478165
35 0.030428660554493
 Sym=      4.1
 Ene=       0.1796
 Spin= Alpha
 Occup=    0.000000
1 -0.25744062532440
2 -0.47564687605895
3 2.58134386802666
4 0.0
5 0.0
6 0.0
7 0.0
8 0.0
9 0.0
10 -0.000000782222042
11 -0.000000759223886
12 0.000001541445928
13 0.0
14 0.0
15 0.0
16 0.31064764330752
17 -0.96891741352457
18 0.045611477365732
19 0.045611484370892
20 0.045611707994452
21 0.31064764330752
22 -0.96891741352457
23 -0.045611477365732
24 -0.045611484370892
25 0.045611707994452
26 0.31064764330752
27 -0.96891741352457
28 -0.045611477365732
29 0.045611484370892
30 -0.045611707994452
31 0.31064764330752
32 -0.96891741352457
33 0.045611477365732
34 -0.045611484370892
35 -0.045611707994452
 Sym=      3.4
 Ene=       0.2138
 Spin= Alpha
 Occup=    0.000000
1 0.0
2 0.0
3 0.0
4 0.0
5 0.0
6 -0.059120663197061
7 0.0
8 0.0
9 -0.76856131568791
10 0.0
11 0.0
12 0.0
13 -0.18898996883846
14 0.0
15 0.0
16 -0.35037553976935
17 1.28504649847380
18 -0.045033556781563
19 -0.045033557450738
20 -0.006902841179018
21 -0.35037553976935
22 1.28504649847380
23 0.045033556781563
24 0.045033557450738
25 -0.006902841179018
26 0.35037553976935
27 -1.28504649847380
28 -0.045033556781563
29 0.045033557450738
30 -0.006902841179018
31 0.35037553976935
32 -1.28504649847380
33 0.045033556781563
34 -0.045033557450738
35 -0.006902841179018
 Sym=      3.2
 Ene=       0.2138
 Spin= Alpha
 Occup=    0.000000
1 0.0
2 0.0
3 0.0
4 -0.059124320579023
5 0.0
6 0.0
7 -0.76854712731933
8 0.0
9 0.0
10 0.0
11 0.0
12 0.0
13 0.0
14 0.0
15 -0.18898982486912
16 -0.35037664110801
17 1.28504296610544
18 -0.006902716186974
19 -0.045033171173321
20 -0.045033280850821
21 0.35037664110801
22 -1.28504296610544
23 -0.006902716186974
24 -0.045033171173321
25 0.045033280850821
26 0.35037664110801
27 -1.28504296610544
28 -0.006902716186974
29 0.045033171173321
30 -0.045033280850821
31 -0.35037664110801
32 1.28504296610544
33 -0.006902716186974
34 0.045033171173321
35 0.045033280850821
 Sym=      3.3
 Ene=       0.2138
 Spin= Alpha
 Occup=    0.000000
1 0.0
2 0.0
3 0.0
4 0.0
5 -0.059124247798295
6 0.0
7 0.0
8 -0.76854722972592
9 0.0
10 0.0
11 0.0
12 0.0
13 0.0
14 -0.18898983680935
15 0.0
16 -0.35037665681124
17 1.28504301118698
18 -0.045033177038563
19 -0.006902721042076
20 -0.045033287862696
21 0.35037665681124
22 -1.28504301118698
23 -0.045033177038563
24 -0.006902721042076
25 0.045033287862696
26 -0.35037665681124
27 1.28504301118698
28 0.045033177038563
29 -0.006902721042076
30 0.045033287862696
31 0.35037665681124
32 -1.28504301118698
33 0.045033177038563
34 -0.006902721042076
35 -0.045033287862696
 Sym=      4.3
 Ene=       0.3328
 Spin= Alpha
 Occup=    0.000000
1 0.0
2 0.0
3 0.0
4 0.0
5 0.58708172409175
6 0.0
7 0.0
8 -2.34764132630171
9 0.0
10 0.0
11 0.0
12 0.0
13 0.0
14 -0.059899262629414
15 0.0
16 0.21986240214752
17 1.04997980788264
18 -0.044303079785783
19 -0.042223678840590
20 -0.044303664917898
21 -0.21986240214752
22 -1.04997980788264
23 -0.044303079785783
24 -0.042223678840590
25 0.044303664917898
26 0.21986240214752
27 1.04997980788264
28 0.044303079785783
29 -0.042223678840590
30 0.044303664917898
31 -0.21986240214752
32 -1.04997980788264
33 0.044303079785783
34 -0.042223678840590
35 -0.044303664917898
 Sym=      4.2
 Ene=       0.3328
 Spin= Alpha
 Occup=    0.000000
1 0.0
2 0.0
3 0.0
4 0.58708178645597
5 0.0
6 0.0
7 -2.34764138568225
8 0.0
9 0.0
10 0.0
11 0.0
12 0.0
13 0.0
14 0.0
15 -0.059899302860550
16 0.21986236540051
17 1.04997986709671
18 -0.042223679692868
19 -0.044303090697596
20 -0.044303674606312
21 -0.21986236540051
22 -1.04997986709671
23 -0.042223679692868
24 -0.044303090697596
25 0.044303674606312
26 -0.21986236540051
27 -1.04997986709671
28 -0.042223679692868
29 0.044303090697596
30 -0.044303674606312
31 0.21986236540051
32 1.04997986709671
33 -0.042223679692868
34 0.044303090697596
35 0.044303674606312
 Sym=      4.4
 Ene=       0.3328
 Spin= Alpha
 Occup=    0.000000
1 0.0
2 0.0
3 0.0
4 0.0
5 0.0
6 0.58708083872197
7 0.0
8 0.0
9 -2.34764777034532
10 0.0
11 0.0
12 0.0
13 -0.059897088641708
14 0.0
15 0.0
16 0.21986550588066
17 1.04997710879893
18 -0.044302958221547
19 -0.044302958916921
20 -0.042224012663039
21 0.21986550588066
22 1.04997710879893
23 0.044302958221547
24 0.044302958916921
25 -0.042224012663039
26 -0.21986550588066
27 -1.04997710879893
28 -0.044302958221547
29 0.044302958916921
30 -0.042224012663039
31 -0.21986550588066
32 -1.04997710879893
33 0.044302958221547
34 -0.044302958916921
35 -0.042224012663039
 Sym=      5.1
 Ene=       0.7730
 Spin= Alpha
 Occup=    0.000000
1 0.000011005674082
2 0.000022200540168
3 -0.000062527272515
4 0.0
5 0.0
6 0.0
7 0.0
8 0.0
9 0.0
10 -0.27232137917895
11 -0.27227168642377
12 0.54459306560272
13 0.0
14 0.0
15 0.0
16 0.000006138612960
17 0.000009786830741
18 -0.10628858627043
19 -0.10626919119123
20 0.21255501431564
21 0.000006138612960
22 0.000009786830741
23 0.10628858627043
24 0.10626919119123
25 0.21255501431564
26 0.000006138612960
27 0.000009786830741
28 0.10628858627043
29 -0.10626919119123
30 -0.21255501431564
31 0.000006138612960
32 0.000009786830741
33 -0.10628858627043
34 0.10626919119123
35 -0.21255501431564
 Sym=      6.1
 Ene=       0.7730
 Spin= Alpha
 Occup=    0.000000
1 -0.000000005086228
2 -0.000000024214462
3 0.000000012238580
4 0.0
5 0.0
6 0.0
7 0.0
8 0.0
9 0.0
10 0.47161855236221
11 -0.47164724235540
12 0.000028689993193
13 0.0
14 0.0
15 0.0
16 0.000000029326414
17 -0.000000014042958
18 0.18407295217738
19 -0.18408413973071
20 0.000011202907237
21 0.000000029326414
22 -0.000000014042958
23 -0.18407295217738
24 0.18408413973071
25 0.000011202907237
26 0.000000029326414
27 -0.000000014042958
28 -0.18407295217738
29 -0.18408413973071
30 -0.000011202907237
31 0.000000029326414
32 -0.000000014042958
33 0.18407295217738
34 0.18408413973071
35 -0.000011202907237
 Sym=      7.1
 Ene=       0.9272
 Spin= Alpha
 Occup=    0.000000
1 -0.88516771475119
2 -1.75496454498999
3 4.96874627415908
4 0.0
5 0.0
6 0.0
7 0.0
8 0.0
9 0.0
10 -0.000003612408572
11 -0.000003621860605
12 0.000007234269177
13 0.0
14 0.0
15 0.0
16 -0.63557210020975
17 -0.71314976746970
18 0.020669891922866
19 0.020669887843138
20 0.020674834642182
21 -0.63557210020975
22 -0.71314976746970
23 -0.020669891922866
24 -0.020669887843138
25 0.020674834642182
26 -0.63557210020975
27 -0.71314976746970
28 -0.020669891922866
29 0.020669887843138
30 -0.020674834642182
31 -0.63557210020975
32 -0.71314976746970
33 0.020669891922866
34 -0.020669887843138
35 -0.020674834642182
 Sym=      5.4
 Ene=       1.3368
 Spin= Alpha
 Occup=    0.000000
1 0.0
2 0.0
3 0.0
4 0.0
5 0.0
6 0.000000002852534
7 0.0
8 0.0
9 -0.000000007193275
10 0.0
11 0.0
12 0.0
13 -0.000000003551463
14 0.0
15 0.0
16 -0.000000000435730
17 0.000000003164954
18 -0.36965063247919
19 0.36965063015756
20 0.000000000195977
21 -0.000000000435730
22 0.000000003164954
23 0.36965063247919
24 -0.36965063015756
25 0.000000000195977
26 0.000000000435730
27 -0.000000003164954
28 -0.36965063247919
29 -0.36965063015756
30 0.000000000195977
31 0.000000000435730
32 -0.000000003164954
33 0.36965063247919
34 0.36965063015756
35 0.000000000195977
 Sym=      5.3
 Ene=       1.3368
 Spin= Alpha
 Occup=    0.000000
1 0.0
2 0.0
3 0.0
4 0.0
5 0.000001278757864
6 0.0
7 0.0
8 -0.000012051072966
9 0.0
10 0.0
11 0.0
12 0.0
13 0.0
14 -0.000007313201556
15 0.0
16 0.000005166179274
17 0.000001922651350
18 -0.36965113534404
19 0.000002658080547
20 0.36965036161723
21 -0.000005166179274
22 -0.000001922651350
23 -0.36965113534404
24 0.000002658080547
25 -0.36965036161723
26 0.000005166179274
27 0.000001922651350
28 0.36965113534404
29 0.000002658080547
30 -0.36965036161723
31 -0.000005166179274
32 -0.000001922651350
33 0.36965113534404
34 0.000002658080547
35 0.36965036161723
 Sym=      5.2
 Ene=       1.3368
 Spin= Alpha
 Occup=    0.000000
1 0.0
2 0.0
3 0.0
4 0.000001273496432
5 0.0
6 0.0
7 -0.000012038734008
8 0.0
9 0.0
10 0.0
11 0.0
12 0.0
13 0.0
14 0.0
15 -0.000007307108696
16 0.000005166830224
17 0.000001917145272
18 0.000002657759895
19 -0.36965113332047
20 0.36965036364084
21 -0.000005166830224
22 -0.000001917145272
23 0.000002657759895
24 -0.36965113332047
25 -0.36965036364084
26 -0.000005166830224
27 -0.000001917145272
28 0.000002657759895
29 0.36965113332047
30 0.36965036364084
31 0.000005166830224
32 0.000001917145272
33 0.000002657759895
34 0.36965113332047
35 -0.36965036364084
 Sym=      6.3
 Ene=       1.5381
 Spin= Alpha
 Occup=    0.000000
1 0.0
2 0.0
3 0.0
4 0.0
5 0.071905679283463
6 0.0
7 0.0
8 -1.08101611703695
9 0.0
10 0.0
11 0.0
12 0.0
13 0.0
14 -0.72315812218665
15 0.0
16 0.47324215106912
17 0.10624421940191
18 -0.000099519182031
19 0.34933883577415
20 -0.000107927295635
21 -0.47324215106912
22 -0.10624421940191
23 -0.000099519182031
24 0.34933883577415
25 0.000107927295635
26 0.47324215106912
27 0.10624421940191
28 0.000099519182031
29 0.34933883577415
30 0.000107927295635
31 -0.47324215106912
32 -0.10624421940191
33 0.000099519182031
34 0.34933883577415
35 -0.000107927295635
 Sym=      6.2
 Ene=       1.5381
 Spin= Alpha
 Occup=    0.000000
1 0.0
2 0.0
3 0.0
4 0.071905656563883
5 0.0
6 0.0
7 -1.08101605520026
8 0.0
9 0.0
10 0.0
11 0.0
12 0.0
13 0.0
14 0.0
15 -0.72315809935430
16 0.47324215577936
17 0.10624418925774
18 0.34933884074828
19 -0.000099505254821
20 -0.000107910988307
21 -0.47324215577936
22 -0.10624418925774
23 0.34933884074828
24 -0.000099505254821
25 0.000107910988307
26 -0.47324215577936
27 -0.10624418925774
28 0.34933884074828
29 0.000099505254821
30 -0.000107910988307
31 0.47324215577936
32 0.10624418925774
33 0.34933884074828
34 0.000099505254821
35 0.000107910988307
 Sym=      6.4
 Ene=       1.5381
 Spin= Alpha
 Occup=    0.000000
1 0.0
2 0.0
3 0.0
4 0.0
5 0.0
6 0.071907258932546
7 0.0
8 0.0
9 -1.08102724977712
10 0.0
11 0.0
12 0.0
13 -0.72315880808458
14 0.0
15 0.0
16 0.47324352791968
17 0.10624889667507
18 -0.000104517760694
19 -0.000104519160409
20 0.34933843101059
21 0.47324352791968
22 0.10624889667507
23 0.000104517760694
24 0.000104519160409
25 0.34933843101059
26 -0.47324352791968
27 -0.10624889667507
28 -0.000104517760694
29 0.000104519160409
30 0.34933843101059
31 -0.47324352791968
32 -0.10624889667507
33 0.000104517760694
34 -0.000104519160409
35 0.34933843101059
 Sym=      7.4
 Ene=       1.8518
 Spin= Alpha
 Occup=    0.000000
1 0.0
2 0.0
3 0.0
4 0.0
5 0.0
6 -0.23800557776554
7 0.0
8 0.0
9 -0.77558553740890
10 0.0
11 0.0
12 0.0
13 0.76295985436516
14 0.0
15 0.0
16 -0.11308584750291
17 0.37563211772931
18 -0.31805877970322
19 -0.31805878048902
20 0.40644606615973
21 -0.11308584750291
22 0.37563211772931
23 0.31805877970322
24 0.31805878048902
25 0.40644606615973
26 0.11308584750291
27 -0.37563211772931
28 -0.31805877970322
29 0.31805878048902
30 0.40644606615973
31 0.11308584750291
32 -0.37563211772931
33 0.31805877970322
34 -0.31805878048902
35 0.40644606615973
 Sym=      7.2
 Ene=       1.8518
 Spin= Alpha
 Occup=    0.000000
1 0.0
2 0.0
3 0.0
4 -0.23800863378072
5 0.0
6 0.0
7 -0.77558621814062
8 0.0
9 0.0
10 0.0
11 0.0
12 0.0
13 0.0
14 0.0
15 0.76295628665894
16 -0.11308591829502
17 0.37563418455875
18 0.40644601537541
19 -0.31805995109671
20 -0.31805893733980
21 0.11308591829502
22 -0.37563418455875
23 0.40644601537541
24 -0.31805995109671
25 0.31805893733980
26 0.11308591829502
27 -0.37563418455875
28 0.40644601537541
29 0.31805995109671
30 -0.31805893733980
31 -0.11308591829502
32 0.37563418455875
33 0.40644601537541
34 0.31805995109671
35 0.31805893733980
 Sym=      7.3
 Ene=       1.8518
 Spin= Alpha
 Occup=    0.000000
1 0.0
2 0.0
3 0.0
4 0.0
5 -0.23800863550782
6 0.0
7 0.0
8 -0.77558621357568
9 0.0
10 0.0
11 0.0
12 0.0
13 0.0
14 0.76295629601402
15 0.0
16 -0.11308592028822
17 0.37563418439722
18 -0.31805995130974
19 0.40644600876560
20 -0.31805893892167
21 0.11308592028822
22 -0.37563418439722
23 -0.31805995130974
24 0.40644600876560
25 0.31805893892167
26 -0.11308592028822
27 0.37563418439722
28 0.31805995130974
29 0.40644600876560
30 0.31805893892167
31 0.11308592028822
32 -0.37563418439722
33 0.31805995130974
34 0.40644600876560
35 -0.31805893892167
 Sym=      8.1
 Ene=       2.1879
 Spin= Alpha
 Occup=    0.000000
1 0.000000013145204
2 0.000000029304464
3 0.000000055819346
4 0.0
5 0.0
6 0.0
7 0.0
8 0.0
9 0.0
10 1.15393548770556
11 -1.15393626023608
12 0.000000772530513
13 0.0
14 0.0
15 0.0
16 -0.000000011781207
17 -0.000000010754475
18 -0.46084573170714
19 0.46084606905878
20 -0.000000294100525
21 -0.000000011781207
22 -0.000000010754475
23 0.46084573170714
24 -0.46084606905878
25 -0.000000294100525
26 -0.000000011781207
27 -0.000000010754475
28 0.46084573170714
29 0.46084606905878
30 0.000000294100525
31 -0.000000011781207
32 -0.000000010754475
33 -0.46084573170714
34 -0.46084606905878