[Molden Format]

[Atoms] Angs
C     1    6         0.0000000000        0.0000000000        0.0000000000
H     2    1         0.6275789000        0.6275789000        0.6275815000
H     3    1        -0.6275789000       -0.6275789000        0.6275815000
H     4    1        -0.6275789000        0.6275789000       -0.6275815000
H     5    1         0.6275789000       -0.6275789000       -0.6275815000
sc    6    0         0.0000000000        0.0000000000        0.0000000000
[GTO]
  1 0
 s    8  1.00
  0.6665000000D+04  0.6915839628D-03
  0.1000000000D+04  0.5325796153D-02
  0.2280000000D+03  0.2706072104D-01
  0.6471000000D+02  0.1016568461D+00
  0.2106000000D+02  0.2745748236D+00
  0.7495000000D+01  0.4482943189D+00
  0.2797000000D+01  0.2849026107D+00
  0.5215000000D+00  0.1519485921D-01
 s    8  1.00
  0.6665000000D+04 -0.2932696527D-03
  0.1000000000D+04 -0.2318035474D-02
  0.2280000000D+03 -0.1149978604D-01
  0.6471000000D+02 -0.4682672701D-01
  0.2106000000D+02 -0.1284661688D+00
  0.7495000000D+01 -0.3012662725D+00
  0.2797000000D+01 -0.2556307023D+00
  0.5215000000D+00  0.1093793361D+01
 s    1  1.00
  0.1596000000D+00  0.1000000000D+01
 p    3  1.00
  0.9439000000D+01  0.5697925159D-01
  0.2002000000D+01  0.3132072115D+00
  0.5456000000D+00  0.7603767417D+00
 p    1  1.00
  0.1517000000D+00  0.1000000000D+01
 d    1  1.00
  0.5500000000D+00  0.1000000000D+01

  2 0
 s    3  1.00
  0.1301000000D+02  0.3349872639D-01
  0.1962000000D+01  0.2348008012D+00
  0.4446000000D+00  0.8136829579D+00
 s    1  1.00
  0.1220000000D+00  0.1000000000D+01
 p    1  1.00
  0.7270000000D+00  0.1000000000D+01

  3 0
 s    3  1.00
  0.1301000000D+02  0.3349872639D-01
  0.1962000000D+01  0.2348008012D+00
  0.4446000000D+00  0.8136829579D+00
 s    1  1.00
  0.1220000000D+00  0.1000000000D+01
 p    1  1.00
  0.7270000000D+00  0.1000000000D+01

  4 0
 s    3  1.00
  0.1301000000D+02  0.3349872639D-01
  0.1962000000D+01  0.2348008012D+00
  0.4446000000D+00  0.8136829579D+00
 s    1  1.00
  0.1220000000D+00  0.1000000000D+01
 p    1  1.00
  0.7270000000D+00  0.1000000000D+01

  5 0
 s    3  1.00
  0.1301000000D+02  0.3349872639D-01
  0.1962000000D+01  0.2348008012D+00
  0.4446000000D+00  0.8136829579D+00
 s    1  1.00
  0.1220000000D+00  0.1000000000D+01
 p    1  1.00
  0.7270000000D+00  0.1000000000D+01

  6 0
 s    1  1.00
  0.3355932300D+02  0.1000000000D+01
 s    1  1.00
  0.2576968000D+01  0.1000000000D+01
 s    1  1.00
  0.2761870000D+00  0.1000000000D+01
 s    1  1.00
  0.1846320000D+00  0.1000000000D+01
 s    1  1.00
  0.1263300000D+00  0.1000000000D+01
 s    1  1.00
  0.8694100000D-01  0.1000000000D+01
 s    1  1.00
  0.5960300000D-01  0.1000000000D+01
 s    1  1.00
  0.4042900000D-01  0.1000000000D+01
 s    1  1.00
  0.2697700000D-01  0.1000000000D+01
 s    1  1.00
  0.1759400000D-01  0.1000000000D+01
 s    1  1.00
  0.1108200000D-01  0.1000000000D+01
 p    1  1.00
  0.1546842000D+01  0.1000000000D+01
 p    1  1.00
  0.3672200000D+00  0.1000000000D+01
 p    1  1.00
  0.2549520000D+00  0.1000000000D+01
 p    1  1.00
  0.1828600000D+00  0.1000000000D+01
 p    1  1.00
  0.1330600000D+00  0.1000000000D+01
 p    1  1.00
  0.9724400000D-01  0.1000000000D+01
 p    1  1.00
  0.7086800000D-01  0.1000000000D+01
 p    1  1.00
  0.5119900000D-01  0.1000000000D+01
 p    1  1.00
  0.3646600000D-01  0.1000000000D+01
 p    1  1.00
  0.2543500000D-01  0.1000000000D+01
 p    1  1.00
  0.1715700000D-01  0.1000000000D+01
 d    1  1.00
  0.4370390000D+00  0.1000000000D+01
 d    1  1.00
  0.3032230000D+00  0.1000000000D+01
 d    1  1.00
  0.2172110000D+00  0.1000000000D+01
 d    1  1.00
  0.1585600000D+00  0.1000000000D+01
 d    1  1.00
  0.1168780000D+00  0.1000000000D+01
 d    1  1.00
  0.8633200000D-01  0.1000000000D+01
 d    1  1.00
  0.6347400000D-01  0.1000000000D+01
 d    1  1.00
  0.4615500000D-01  0.1000000000D+01
 d    1  1.00
  0.3294300000D-01  0.1000000000D+01
 d    1  1.00
  0.2277400000D-01  0.1000000000D+01
 f    1  1.00
  0.4098830000D+00  0.1000000000D+01
 f    1  1.00
  0.2914550000D+00  0.1000000000D+01
 f    1  1.00
  0.2137600000D+00  0.1000000000D+01
 f    1  1.00
  0.1595870000D+00  0.1000000000D+01
 f    1  1.00
  0.1201990000D+00  0.1000000000D+01
 f    1  1.00
  0.9067800000D-01  0.1000000000D+01
 f    1  1.00
  0.6808400000D-01  0.1000000000D+01
 f    1  1.00
  0.5056600000D-01  0.1000000000D+01
 f    1  1.00
  0.3687600000D-01  0.1000000000D+01
 f    1  1.00
  0.2605500000D-01  0.1000000000D+01
 g    1  1.00
  0.3402440000D+00  0.1000000000D+01
 g    1  1.00
  0.2431850000D+00  0.1000000000D+01
 g    1  1.00
  0.1792710000D+00  0.1000000000D+01
 g    1  1.00
  0.1344790000D+00  0.1000000000D+01
 g    1  1.00
  0.1016460000D+00  0.1000000000D+01
 g    1  1.00
  0.7679000000D-01  0.1000000000D+01
 g    1  1.00
  0.5755500000D-01  0.1000000000D+01
 g    1  1.00
  0.4244300000D-01  0.1000000000D+01
 g    1  1.00
  0.3036500000D-01  0.1000000000D+01


[MO]
 Sym=      1.1
 Ene=       0.0000
 Spin= Alpha
 Occup=   1.303430
    1    0.272802454389713E-01
    2    0.561142663736546E+00
    3    0.347966559361137E+00
    4    0.000000000000000E+00
    5    0.000000000000000E+00
    6    0.000000000000000E+00
    7    0.000000000000000E+00
    8    0.000000000000000E+00
    9    0.000000000000000E+00
   10    0.704946022479162E-07
   11    0.704946022479162E-07
   12   -0.140989204495832E-06
   13    0.000000000000000E+00
   14    0.000000000000000E+00
   15    0.000000000000000E+00
   16    0.264747913217819E+00
   17    0.122658334065796E-01
   18   -0.227827562369618E-01
   19   -0.227827558006012E-01
   20   -0.227828189830824E-01
   21    0.264747913217819E+00
   22    0.122658334065796E-01
   23    0.227827562369618E-01
   24    0.227827558006012E-01
   25   -0.227828189830824E-01
   26    0.264747913217819E+00
   27    0.122658334065796E-01
   28    0.227827562369618E-01
   29   -0.227827558006012E-01
   30    0.227828189830824E-01
   31    0.264747913217819E+00
   32    0.122658334065796E-01
   33   -0.227827562369618E-01
   34    0.227827558006012E-01
   35    0.227828189830824E-01
   36   -0.171057691924118E-02
   37    0.562176666452948E-02
   38   -0.425529887009279E+00
   39    0.570978524787766E+00
   40   -0.502044937610875E+00
   41    0.225976617950006E+00
   42    0.124757460163222E+00
   43   -0.109947873973181E+00
   44   -0.215461243391778E-01
   45    0.769909279084891E-01
   46   -0.347626224143917E-01
   47    0.000000000000000E+00
   48    0.000000000000000E+00
   49    0.000000000000000E+00
   50    0.000000000000000E+00
   51    0.000000000000000E+00
   52    0.000000000000000E+00
   53    0.000000000000000E+00
   54    0.000000000000000E+00
   55    0.000000000000000E+00
   56    0.000000000000000E+00
   57    0.000000000000000E+00
   58    0.000000000000000E+00
   59    0.000000000000000E+00
   60    0.000000000000000E+00
   61    0.000000000000000E+00
   62    0.000000000000000E+00
   63    0.000000000000000E+00
   64    0.000000000000000E+00
   65    0.000000000000000E+00
   66    0.000000000000000E+00
   67    0.000000000000000E+00
   68    0.000000000000000E+00
   69    0.000000000000000E+00
   70    0.000000000000000E+00
   71    0.000000000000000E+00
   72    0.000000000000000E+00
   73    0.000000000000000E+00
   74    0.000000000000000E+00
   75    0.000000000000000E+00
   76    0.000000000000000E+00
   77    0.000000000000000E+00
   78    0.000000000000000E+00
   79    0.000000000000000E+00
   80    0.552302404919844E-04
   81    0.554634018960767E-04
   82   -0.110693642388061E-03
   83    0.000000000000000E+00
   84    0.000000000000000E+00
   85    0.000000000000000E+00
   86   -0.161242508927302E-03
   87   -0.162893345316931E-03
   88    0.324135854244233E-03
   89    0.000000000000000E+00
   90    0.000000000000000E+00
   91    0.000000000000000E+00
   92   -0.167860282446859E-03
   93   -0.162360969982137E-03
   94    0.330221252428996E-03
   95    0.000000000000000E+00
   96    0.000000000000000E+00
   97    0.000000000000000E+00
   98    0.174970070574976E-02
   99    0.173854858325536E-02
  100   -0.348824928900512E-02
  101    0.000000000000000E+00
  102    0.000000000000000E+00
  103    0.000000000000000E+00
  104   -0.404069088216085E-02
  105   -0.402650336400090E-02
  106    0.806719424616175E-02
  107    0.000000000000000E+00
  108    0.000000000000000E+00
  109    0.000000000000000E+00
  110    0.424846096621029E-02
  111    0.423900185021066E-02
  112   -0.848746281642095E-02
  113    0.000000000000000E+00
  114    0.000000000000000E+00
  115    0.000000000000000E+00
  116   -0.546744960519250E-03
  117   -0.548690855793542E-03
  118    0.109543581631279E-02
  119    0.000000000000000E+00
  120    0.000000000000000E+00
  121    0.000000000000000E+00
  122   -0.411751838159824E-02
  123   -0.410638521443212E-02
  124    0.822390359603037E-02
  125    0.000000000000000E+00
  126    0.000000000000000E+00
  127    0.000000000000000E+00
  128    0.492520847994373E-02
  129    0.491454737008606E-02
  130   -0.983975585002979E-02
  131    0.000000000000000E+00
  132    0.000000000000000E+00
  133    0.000000000000000E+00
  134   -0.207463417861293E-02
  135   -0.207060450080810E-02
  136    0.414523867942102E-02
  137    0.000000000000000E+00
  138    0.000000000000000E+00
  139    0.000000000000000E+00
  140    0.000000000000000E+00
  141    0.000000000000000E+00
  142    0.000000000000000E+00
  143    0.000000000000000E+00
  144    0.000000000000000E+00
  145    0.000000000000000E+00
  146    0.000000000000000E+00
  147    0.000000000000000E+00
  148    0.000000000000000E+00
  149    0.111404530647818E+00
  150    0.000000000000000E+00
  151    0.000000000000000E+00
  152    0.000000000000000E+00
  153    0.000000000000000E+00
  154    0.000000000000000E+00
  155    0.000000000000000E+00
  156    0.000000000000000E+00
  157    0.000000000000000E+00
  158    0.000000000000000E+00
  159   -0.746988610725077E+00
  160    0.000000000000000E+00
  161    0.000000000000000E+00
  162    0.000000000000000E+00
  163    0.000000000000000E+00
  164    0.000000000000000E+00
  165    0.000000000000000E+00
  166    0.000000000000000E+00
  167    0.000000000000000E+00
  168    0.000000000000000E+00
  169    0.208048305015288E+01
  170    0.000000000000000E+00
  171    0.000000000000000E+00
  172    0.000000000000000E+00
  173    0.000000000000000E+00
  174    0.000000000000000E+00
  175    0.000000000000000E+00
  176    0.000000000000000E+00
  177    0.000000000000000E+00
  178    0.000000000000000E+00
  179   -0.366171586496268E+01
  180    0.000000000000000E+00
  181    0.000000000000000E+00
  182    0.000000000000000E+00
  183    0.000000000000000E+00
  184    0.000000000000000E+00
  185    0.000000000000000E+00
  186    0.000000000000000E+00
  187    0.000000000000000E+00
  188    0.000000000000000E+00
  189    0.407576360814559E+01
  190    0.000000000000000E+00
  191    0.000000000000000E+00
  192    0.000000000000000E+00
  193    0.000000000000000E+00
  194    0.000000000000000E+00
  195    0.000000000000000E+00
  196    0.000000000000000E+00
  197    0.000000000000000E+00
  198    0.000000000000000E+00
  199   -0.232874530283975E+01
  200    0.000000000000000E+00
  201    0.000000000000000E+00
  202    0.000000000000000E+00
  203    0.000000000000000E+00
  204    0.000000000000000E+00
  205    0.000000000000000E+00
  206    0.000000000000000E+00
  207    0.000000000000000E+00
  208    0.000000000000000E+00
  209   -0.716869946955212E+00
  210    0.000000000000000E+00
  211    0.000000000000000E+00
  212    0.000000000000000E+00
  213    0.000000000000000E+00
  214    0.000000000000000E+00
  215    0.000000000000000E+00
  216    0.000000000000000E+00
  217    0.000000000000000E+00
  218    0.000000000000000E+00
  219    0.280927727678836E+01
  220    0.000000000000000E+00
  221    0.000000000000000E+00
  222    0.000000000000000E+00
  223    0.000000000000000E+00
  224    0.000000000000000E+00
  225    0.000000000000000E+00
  226    0.000000000000000E+00
  227    0.000000000000000E+00
  228    0.000000000000000E+00
  229   -0.253877403481554E+01
  230    0.000000000000000E+00
  231    0.000000000000000E+00
  232    0.000000000000000E+00
  233    0.000000000000000E+00
  234    0.000000000000000E+00
  235    0.000000000000000E+00
  236    0.000000000000000E+00
  237    0.000000000000000E+00
  238    0.000000000000000E+00
  239    0.948085375247093E+00
  240    0.317028857284488E-01
  241    0.317028932346422E-01
  242    0.317045590174206E-01
  243    0.000000000000000E+00
  244    0.000000000000000E+00
  245    0.000000000000000E+00
  246    0.000000000000000E+00
  247    0.000000000000000E+00
  248    0.000000000000000E+00
  249   -0.278435005717835E-01
  250   -0.278464267193464E-01
  251   -0.278464399048768E-01
  252    0.000000000000000E+00
  253    0.000000000000000E+00
  254    0.000000000000000E+00
  255   -0.129331810375386E+00
  256   -0.129331843570723E+00
  257   -0.129339163038123E+00
  258    0.000000000000000E+00
  259    0.000000000000000E+00
  260    0.000000000000000E+00
  261    0.000000000000000E+00
  262    0.000000000000000E+00
  263    0.000000000000000E+00
  264    0.113587002100022E+00
  265    0.113599859623807E+00
  266    0.113599917935405E+00
  267    0.000000000000000E+00
  268    0.000000000000000E+00
  269    0.000000000000000E+00
  270    0.277147753722746E+00
  271    0.277147836699995E+00
  272    0.277169008920393E+00
  273    0.000000000000000E+00
  274    0.000000000000000E+00
  275    0.000000000000000E+00
  276    0.000000000000000E+00
  277    0.000000000000000E+00
  278    0.000000000000000E+00
  279   -0.243403065993708E+00
  280   -0.243440257542283E+00
  281   -0.243440403301788E+00
  282    0.000000000000000E+00
  283    0.000000000000000E+00
  284    0.000000000000000E+00
  285   -0.338435627731784E+00
  286   -0.338435752396246E+00
  287   -0.338478925023481E+00
  288    0.000000000000000E+00
  289    0.000000000000000E+00
  290    0.000000000000000E+00
  291    0.000000000000000E+00
  292    0.000000000000000E+00
  293    0.000000000000000E+00
  294    0.297213499459586E+00
  295    0.297289337365708E+00
  296    0.297289556353813E+00
  297    0.000000000000000E+00
  298    0.000000000000000E+00
  299    0.000000000000000E+00
  300    0.217854240179790E+00
  301    0.217854342812864E+00
  302    0.217920464149681E+00
  303    0.000000000000000E+00
  304    0.000000000000000E+00
  305    0.000000000000000E+00
  306    0.000000000000000E+00
  307    0.000000000000000E+00
  308    0.000000000000000E+00
  309   -0.191285496959563E+00
  310   -0.191401647030924E+00
  311   -0.191401827318249E+00
  312    0.000000000000000E+00
  313    0.000000000000000E+00
  314    0.000000000000000E+00
  315    0.274308074182306E-01
  316    0.274308011636500E-01
  317    0.273540066214547E-01
  318    0.000000000000000E+00
  319    0.000000000000000E+00
  320    0.000000000000000E+00
  321    0.000000000000000E+00
  322    0.000000000000000E+00
  323    0.000000000000000E+00
  324   -0.241602036838369E-01
  325   -0.240253048450422E-01
  326   -0.240252938581199E-01
  327    0.000000000000000E+00
  328    0.000000000000000E+00
  329    0.000000000000000E+00
  330   -0.213966323146374E+00
  331   -0.213966412887252E+00
  332   -0.213900899637512E+00
  333    0.000000000000000E+00
  334    0.000000000000000E+00
  335    0.000000000000000E+00
  336    0.000000000000000E+00
  337    0.000000000000000E+00
  338    0.000000000000000E+00
  339    0.187986316277049E+00
  340    0.187871234383687E+00
  341    0.187871392024321E+00
  342    0.000000000000000E+00
  343    0.000000000000000E+00
  344    0.000000000000000E+00
  345    0.209481950780209E+00
  346    0.209482051951115E+00
  347    0.209444498518555E+00
  348    0.000000000000000E+00
  349    0.000000000000000E+00
  350    0.000000000000000E+00
  351    0.000000000000000E+00
  352    0.000000000000000E+00
  353    0.000000000000000E+00
  354   -0.184023089500844E+00
  355   -0.183957122385209E+00
  356   -0.183957300104059E+00
  357    0.000000000000000E+00
  358    0.000000000000000E+00
  359    0.000000000000000E+00
  360   -0.832541226837114E-01
  361   -0.832541657709395E-01
  362   -0.832429423683143E-01
  363    0.000000000000000E+00
  364    0.000000000000000E+00
  365    0.000000000000000E+00
  366    0.000000000000000E+00
  367    0.000000000000000E+00
  368    0.000000000000000E+00
  369    0.731327915877666E-01
  370    0.731130763327735E-01
  371    0.731131520206657E-01
  372    0.000000000000000E+00
  373    0.000000000000000E+00
  374    0.000000000000000E+00
 Sym=      1.2
 Ene=       0.0000
 Spin= Alpha
 Occup=   1.356730
    1    0.000000000000000E+00
    2    0.000000000000000E+00
    3    0.000000000000000E+00
    4    0.601689071822985E+00
    5    0.000000000000000E+00
    6    0.000000000000000E+00
    7    0.255136625375222E+00
    8    0.000000000000000E+00
    9    0.000000000000000E+00
   10    0.000000000000000E+00
   11    0.000000000000000E+00
   12    0.000000000000000E+00
   13    0.000000000000000E+00
   14    0.000000000000000E+00
   15    0.306428815291924E-01
   16    0.336706767412522E+00
   17    0.538457183089838E-01
   18   -0.280052676994416E-03
   19   -0.189989742073923E-01
   20   -0.189990574185696E-01
   21   -0.336706767412522E+00
   22   -0.538457183089838E-01
   23   -0.280052676994416E-03
   24   -0.189989742073923E-01
   25    0.189990574185696E-01
   26   -0.336706767412522E+00
   27   -0.538457183089838E-01
   28   -0.280052676994416E-03
   29    0.189989742073923E-01
   30   -0.189990574185696E-01
   31    0.336706767412522E+00
   32    0.538457183089838E-01
   33   -0.280052676994416E-03
   34    0.189989742073923E-01
   35    0.189990574185696E-01
   36    0.000000000000000E+00
   37    0.000000000000000E+00
   38    0.000000000000000E+00
   39    0.000000000000000E+00
   40    0.000000000000000E+00
   41    0.000000000000000E+00
   42    0.000000000000000E+00
   43    0.000000000000000E+00
   44    0.000000000000000E+00
   45    0.000000000000000E+00
   46    0.000000000000000E+00
   47   -0.746012701664296E-02
   48    0.000000000000000E+00
   49    0.000000000000000E+00
   50    0.133420035190240E+00
   51    0.000000000000000E+00
   52    0.000000000000000E+00
   53   -0.108151829863314E+01
   54    0.000000000000000E+00
   55    0.000000000000000E+00
   56    0.223720290816098E+01
   57    0.000000000000000E+00
   58    0.000000000000000E+00
   59   -0.220178492909627E+01
   60    0.000000000000000E+00
   61    0.000000000000000E+00
   62    0.696177729723063E+00
   63    0.000000000000000E+00
   64    0.000000000000000E+00
   65    0.976253107942705E+00
   66    0.000000000000000E+00
   67    0.000000000000000E+00
   68   -0.874861154773666E+00
   69    0.000000000000000E+00
   70    0.000000000000000E+00
   71   -0.345879725543415E+00
   72    0.000000000000000E+00
   73    0.000000000000000E+00
   74    0.960307352106682E+00
   75    0.000000000000000E+00
   76    0.000000000000000E+00
   77   -0.467680193472612E+00
   78    0.000000000000000E+00
   79    0.000000000000000E+00
   80    0.000000000000000E+00
   81    0.000000000000000E+00
   82    0.000000000000000E+00
   83    0.000000000000000E+00
   84    0.000000000000000E+00
   85    0.251316205284055E+00
   86    0.000000000000000E+00
   87    0.000000000000000E+00
   88    0.000000000000000E+00
   89    0.000000000000000E+00
   90    0.000000000000000E+00
   91   -0.128357767602221E+01
   92    0.000000000000000E+00
   93    0.000000000000000E+00
   94    0.000000000000000E+00
   95    0.000000000000000E+00
   96    0.000000000000000E+00
   97    0.310554567769110E+01
   98    0.000000000000000E+00
   99    0.000000000000000E+00
  100    0.000000000000000E+00
  101    0.000000000000000E+00
  102    0.000000000000000E+00
  103   -0.508509002715489E+01
  104    0.000000000000000E+00
  105    0.000000000000000E+00
  106    0.000000000000000E+00
  107    0.000000000000000E+00
  108    0.000000000000000E+00
  109    0.552134802409035E+01
  110    0.000000000000000E+00
  111    0.000000000000000E+00
  112    0.000000000000000E+00
  113    0.000000000000000E+00
  114    0.000000000000000E+00
  115   -0.313214651628647E+01
  116    0.000000000000000E+00
  117    0.000000000000000E+00
  118    0.000000000000000E+00
  119    0.000000000000000E+00
  120    0.000000000000000E+00
  121   -0.794020541514161E+00
  122    0.000000000000000E+00
  123    0.000000000000000E+00
  124    0.000000000000000E+00
  125    0.000000000000000E+00
  126    0.000000000000000E+00
  127    0.343093802856912E+01
  128    0.000000000000000E+00
  129    0.000000000000000E+00
  130    0.000000000000000E+00
  131    0.000000000000000E+00
  132    0.000000000000000E+00
  133   -0.306390974124964E+01
  134    0.000000000000000E+00
  135    0.000000000000000E+00
  136    0.000000000000000E+00
  137    0.000000000000000E+00
  138    0.000000000000000E+00
  139    0.110881741856519E+01
  140   -0.515118153382589E-01
  141    0.000000000000000E+00
  142    0.000000000000000E+00
  143    0.345599400653756E-01
  144    0.000000000000000E+00
  145    0.000000000000000E+00
  146    0.345504123790824E-01
  147    0.000000000000000E+00
  148    0.000000000000000E+00
  149    0.000000000000000E+00
  150    0.287518335750072E+00
  151    0.000000000000000E+00
  152    0.000000000000000E+00
  153   -0.192910672009578E+00
  154    0.000000000000000E+00
  155    0.000000000000000E+00
  156   -0.192835654099283E+00
  157    0.000000000000000E+00
  158    0.000000000000000E+00
  159    0.000000000000000E+00
  160   -0.749156466160323E+00
  161    0.000000000000000E+00
  162    0.000000000000000E+00
  163    0.502697098451860E+00
  164    0.000000000000000E+00
  165    0.000000000000000E+00
  166    0.502401772018942E+00
  167    0.000000000000000E+00
  168    0.000000000000000E+00
  169    0.000000000000000E+00
  170    0.133936616988901E+01
  171    0.000000000000000E+00
  172    0.000000000000000E+00
  173   -0.898855364074036E+00
  174    0.000000000000000E+00
  175    0.000000000000000E+00
  176   -0.898092917507175E+00
  177    0.000000000000000E+00
  178    0.000000000000000E+00
  179    0.000000000000000E+00
  180   -0.152776487862316E+01
  181    0.000000000000000E+00
  182    0.000000000000000E+00
  183    0.102557390466028E+01
  184    0.000000000000000E+00
  185    0.000000000000000E+00
  186    0.102413776868258E+01
  187    0.000000000000000E+00
  188    0.000000000000000E+00
  189    0.000000000000000E+00
  190    0.874321190047303E+00
  191    0.000000000000000E+00
  192    0.000000000000000E+00
  193   -0.587542900661616E+00
  194    0.000000000000000E+00
  195    0.000000000000000E+00
  196   -0.585482068406953E+00
  197    0.000000000000000E+00
  198    0.000000000000000E+00
  199    0.000000000000000E+00
  200    0.297991320779043E+00
  201    0.000000000000000E+00
  202    0.000000000000000E+00
  203   -0.198766086356596E+00
  204    0.000000000000000E+00
  205    0.000000000000000E+00
  206   -0.201031223623535E+00
  207    0.000000000000000E+00
  208    0.000000000000000E+00
  209    0.000000000000000E+00
  210   -0.111064388493011E+01
  211    0.000000000000000E+00
  212    0.000000000000000E+00
  213    0.744120277500744E+00
  214    0.000000000000000E+00
  215    0.000000000000000E+00
  216    0.745964857798166E+00
  217    0.000000000000000E+00
  218    0.000000000000000E+00
  219    0.000000000000000E+00
  220    0.100069297043262E+01
  221    0.000000000000000E+00
  222    0.000000000000000E+00
  223   -0.670780390883675E+00
  224    0.000000000000000E+00
  225    0.000000000000000E+00
  226   -0.671790113012434E+00
  227    0.000000000000000E+00
  228    0.000000000000000E+00
  229    0.000000000000000E+00
  230   -0.373783541565758E+00
  231    0.000000000000000E+00
  232    0.000000000000000E+00
  233    0.250599167383853E+00
  234    0.000000000000000E+00
  235    0.000000000000000E+00
  236    0.250884077303138E+00
  237    0.000000000000000E+00
  238    0.000000000000000E+00
  239    0.000000000000000E+00
  240    0.000000000000000E+00
  241    0.000000000000000E+00
  242    0.000000000000000E+00
  243    0.000000000000000E+00
  244    0.000000000000000E+00
  245    0.000000000000000E+00
  246   -0.164806631441723E-01
  247    0.000000000000000E+00
  248   -0.164754277981814E-01
  249    0.000000000000000E+00
  250    0.000000000000000E+00
  251    0.000000000000000E+00
  252    0.442152357718608E-01
  253    0.000000000000000E+00
  254    0.000000000000000E+00
  255    0.000000000000000E+00
  256    0.000000000000000E+00
  257    0.000000000000000E+00
  258    0.000000000000000E+00
  259    0.000000000000000E+00
  260    0.000000000000000E+00
  261    0.801987250624608E-01
  262    0.000000000000000E+00
  263    0.801633420859175E-01
  264    0.000000000000000E+00
  265    0.000000000000000E+00
  266    0.000000000000000E+00
  267   -0.215148289893696E+00
  268    0.000000000000000E+00
  269    0.000000000000000E+00
  270    0.000000000000000E+00
  271    0.000000000000000E+00
  272    0.000000000000000E+00
  273    0.000000000000000E+00
  274    0.000000000000000E+00
  275    0.000000000000000E+00
  276   -0.156371112794266E+00
  277    0.000000000000000E+00
  278   -0.156246020306060E+00
  279    0.000000000000000E+00
  280    0.000000000000000E+00
  281    0.000000000000000E+00
  282    0.419419896326058E+00
  283    0.000000000000000E+00
  284    0.000000000000000E+00
  285    0.000000000000000E+00
  286    0.000000000000000E+00
  287    0.000000000000000E+00
  288    0.000000000000000E+00
  289    0.000000000000000E+00
  290    0.000000000000000E+00
  291    0.195857984009205E+00
  292    0.000000000000000E+00
  293    0.195565543393983E+00
  294    0.000000000000000E+00
  295    0.000000000000000E+00
  296    0.000000000000000E+00
  297   -0.525149769159767E+00
  298    0.000000000000000E+00
  299    0.000000000000000E+00
  300    0.000000000000000E+00
  301    0.000000000000000E+00
  302    0.000000000000000E+00
  303    0.000000000000000E+00
  304    0.000000000000000E+00
  305    0.000000000000000E+00
  306   -0.143468388828788E+00
  307    0.000000000000000E+00
  308   -0.142979373818202E+00
  309    0.000000000000000E+00
  310    0.000000000000000E+00
  311    0.000000000000000E+00
  312    0.384310001568837E+00
  313    0.000000000000000E+00
  314    0.000000000000000E+00
  315    0.000000000000000E+00
  316    0.000000000000000E+00
  317    0.000000000000000E+00
  318    0.000000000000000E+00
  319    0.000000000000000E+00
  320    0.000000000000000E+00
  321    0.165465599404792E-02
  322    0.000000000000000E+00
  323    0.105517682096335E-02
  324    0.000000000000000E+00
  325    0.000000000000000E+00
  326    0.000000000000000E+00
  327   -0.363562222921488E-02
  328    0.000000000000000E+00
  329    0.000000000000000E+00
  330    0.000000000000000E+00
  331    0.000000000000000E+00
  332    0.000000000000000E+00
  333    0.000000000000000E+00
  334    0.000000000000000E+00
  335    0.000000000000000E+00
  336    0.120964744141329E+00
  337    0.000000000000000E+00
  338    0.121493852076458E+00
  339    0.000000000000000E+00
  340    0.000000000000000E+00
  341    0.000000000000000E+00
  342   -0.325292341723287E+00
  343    0.000000000000000E+00
  344    0.000000000000000E+00
  345    0.000000000000000E+00
  346    0.000000000000000E+00
  347    0.000000000000000E+00
  348    0.000000000000000E+00
  349    0.000000000000000E+00
  350    0.000000000000000E+00
  351   -0.128543555014903E+00
  352    0.000000000000000E+00
  353   -0.128853198406874E+00
  354    0.000000000000000E+00
  355    0.000000000000000E+00
  356    0.000000000000000E+00
  357    0.345333982703307E+00
  358    0.000000000000000E+00
  359    0.000000000000000E+00
  360    0.000000000000000E+00
  361    0.000000000000000E+00
  362    0.000000000000000E+00
  363    0.000000000000000E+00
  364    0.000000000000000E+00
  365    0.000000000000000E+00
  366    0.529607197902429E-01
  367    0.000000000000000E+00
  368    0.530543577430878E-01
  369    0.000000000000000E+00
  370    0.000000000000000E+00
  371    0.000000000000000E+00
  372   -0.142234152002663E+00
  373    0.000000000000000E+00
  374    0.000000000000000E+00
 Sym=      1.3
 Ene=       0.0000
 Spin= Alpha
 Occup=   1.356730
    1    0.000000000000000E+00
    2    0.000000000000000E+00
    3    0.000000000000000E+00
    4    0.000000000000000E+00
    5   -0.601689078672054E+00
    6    0.000000000000000E+00
    7    0.000000000000000E+00
    8   -0.255136626380178E+00
    9    0.000000000000000E+00
   10    0.000000000000000E+00
   11    0.000000000000000E+00
   12    0.000000000000000E+00
   13    0.000000000000000E+00
   14   -0.306428811059114E-01
   15    0.000000000000000E+00
   16   -0.336706769589434E+00
   17   -0.538457233312838E-01
   18    0.189989743033580E-01
   19    0.280051287896521E-03
   20    0.189990567280861E-01
   21    0.336706769589434E+00
   22    0.538457233312838E-01
   23    0.189989743033580E-01
   24    0.280051287896521E-03
   25   -0.189990567280861E-01
   26   -0.336706769589434E+00
   27   -0.538457233312838E-01
   28   -0.189989743033580E-01
   29    0.280051287896521E-03
   30   -0.189990567280861E-01
   31    0.336706769589434E+00
   32    0.538457233312838E-01
   33   -0.189989743033580E-01
   34    0.280051287896521E-03
   35    0.189990567280861E-01
   36    0.000000000000000E+00
   37    0.000000000000000E+00
   38    0.000000000000000E+00
   39    0.000000000000000E+00
   40    0.000000000000000E+00
   41    0.000000000000000E+00
   42    0.000000000000000E+00
   43    0.000000000000000E+00
   44    0.000000000000000E+00
   45    0.000000000000000E+00
   46    0.000000000000000E+00
   47    0.000000000000000E+00
   48    0.746012968948861E-02
   49    0.000000000000000E+00
   50    0.000000000000000E+00
   51   -0.133420022811256E+00
   52    0.000000000000000E+00
   53    0.000000000000000E+00
   54    0.108151816514477E+01