[Molden Format]
[Atoms] (AU)
H    1    1           0.0000000000         0.0000000000        -0.7005214747
H    2    1           0.0000000000         0.0000000000         0.7005214747
[GTO]
  1 0
 s    3  1.00
       13.0100000000         0.0196850000
        1.9620000000         0.1379770000
        0.4446000000         0.4781480000
 s    1  1.00
        0.1220000000         1.0000000000
 p    1  1.00
        0.7270000000         1.0000000000

  2 0
 s    3  1.00
       13.0100000000         0.0196850000
        1.9620000000         0.1379770000
        0.4446000000         0.4781480000
 s    1  1.00
        0.1220000000         1.0000000000
 p    1  1.00
        0.7270000000         1.0000000000

[5D]
[9G]

[MO]
 Sym= Ag
 Ene=        -5.9198855654e-01
 Spin= Alpha
 Occup=         2.0000000000e+00
  1         4.0350269276e-01
  2         1.7409019532e-01
  3         0.0000000000e+00
  4         0.0000000000e+00
  5         2.2477505129e-02
  6         4.0350269276e-01
  7         1.7409019532e-01
  8         0.0000000000e+00
  9         0.0000000000e+00
 10        -2.2477505129e-02
 Sym= B1u
 Ene=         1.9711970114e-01
 Spin= Alpha
 Occup=         0.0000000000e+00
  1         1.5046017130e-01
  2         1.9545621896e+00
  3         0.0000000000e+00
  4         0.0000000000e+00
  5         1.4234510831e-02
  6        -1.5046017130e-01
  7        -1.9545621896e+00
  8         0.0000000000e+00
  9         0.0000000000e+00
 10         1.4234510831e-02
 Sym= Ag
 Ene=         4.7965065377e-01
 Spin= Alpha
 Occup=         0.0000000000e+00
  1         7.0054945933e-01
  2        -7.2642293338e-01
  3         0.0000000000e+00
  4         0.0000000000e+00
  5         1.1510006054e-02
  6         7.0054945933e-01
  7        -7.2642293338e-01
  8         0.0000000000e+00
  9         0.0000000000e+00
 10        -1.1510006054e-02
 Sym= B1u
 Ene=         9.3627558060e-01
 Spin= Alpha
 Occup=         0.0000000000e+00
  1         7.6246184188e-01
  2        -1.6163114778e+00
  3         0.0000000000e+00
  4         0.0000000000e+00
  5        -4.0902867340e-01
  6        -7.6246184188e-01
  7         1.6163114778e+00
  8         0.0000000000e+00
  9         0.0000000000e+00
 10        -4.0902867340e-01
 Sym= B2u
 Ene=         1.2927815704e+00
 Spin= Alpha
 Occup=         0.0000000000e+00
  1         0.0000000000e+00
  2         0.0000000000e+00
  3         0.0000000000e+00
  4         5.7930083094e-01
  5         0.0000000000e+00
  6         0.0000000000e+00
  7         0.0000000000e+00
  8         0.0000000000e+00
  9         5.7930083094e-01
 10         0.0000000000e+00
 Sym= B3u
 Ene=         1.2927815704e+00
 Spin= Alpha
 Occup=         0.0000000000e+00
  1         0.0000000000e+00
  2         0.0000000000e+00
  3         5.7930083094e-01
  4         0.0000000000e+00
  5         0.0000000000e+00
  6         0.0000000000e+00
  7         0.0000000000e+00
  8         5.7930083094e-01
  9         0.0000000000e+00
 10         0.0000000000e+00
 Sym= Ag
 Ene=         1.9557076378e+00
 Spin= Alpha
 Occup=         0.0000000000e+00
  1         4.4347723701e-01
  2        -2.2093669565e-01
  3         0.0000000000e+00
  4         0.0000000000e+00
  5        -7.2601522590e-01
  6         4.4347723701e-01
  7        -2.2093669565e-01
  8         0.0000000000e+00
  9         0.0000000000e+00
 10         7.2601522590e-01
 Sym= B2g
 Ene=         2.0425894048e+00
 Spin= Alpha
 Occup=         0.0000000000e+00
  1         0.0000000000e+00
  2         0.0000000000e+00
  3         9.9006573659e-01
  4         0.0000000000e+00
  5         0.0000000000e+00
  6         0.0000000000e+00
  7         0.0000000000e+00
  8        -9.9006573659e-01
  9         0.0000000000e+00
 10         0.0000000000e+00
 Sym= B3g
 Ene=         2.0425894048e+00
 Spin= Alpha
 Occup=         0.0000000000e+00
  1         0.0000000000e+00
  2         0.0000000000e+00
  3         0.0000000000e+00
  4         9.9006573659e-01
  5         0.0000000000e+00
  6         0.0000000000e+00
  7         0.0000000000e+00
  8         0.0000000000e+00
  9        -9.9006573659e-01
 10         0.0000000000e+00
 Sym= B1u
 Ene=         3.6019193233e+00
 Spin= Alpha
 Occup=         0.0000000000e+00
  1         2.6719683461e+00
  2         5.3181921067e-02
  3         0.0000000000e+00
  4         0.0000000000e+00
  5         2.0228918161e+00
  6        -2.6719683461e+00
  7        -5.3181921067e-02
  8         0.0000000000e+00
  9         0.0000000000e+00
 10         2.0228918161e+00
