[Molden Format]
[Molpro variables]
_NUMVAR=  774.0000000000000    
_AVOGAD= 0.6022136736000000E+24
_BOLTZ= 0.1380658000000000E-22
_CLIGHT=  29979245800.00000    
_EV2006= 0.3674930886769165E-01
_EV= 0.3674932534394180E-01
_ENULL= 0.8854187817000000E-11
_KJOULE= 0.3808798324128737E-03
_KJOULE/MOL= 0.3808798324128737E-03
_CM= 0.4556335267302901E-05
_CM-1= 0.4556335267302901E-05
_DEB2SI= 0.3335641000000000E-29
_AMU2AU=  1822.888390000000    
_KCAL= 0.1593601117815568E-02
_KCAL/MOL= 0.1593601117815568E-02
_KELVIN2006= 0.3166828861084835E-05
_KELVIN= 0.3166814820820034E-05
_JOULE= 0.4359748200000000E-17
_HERTZ2006= 0.1519829850815779E-15
_HERTZ= 0.1519829846011223E-15
_HZ2006= 0.1519829850815779E-15
_HZ= 0.1519829846011223E-15
_JPCAL=  4.184000000000000    
_PLANCK= 0.6626075540000000E-33
_TOA2006= 0.5291772490000000    
_TOA= 0.5291772090000000    
_TOANG2006= 0.5291772490000000    
_TOANG= 0.5291772090000000    
_TORAD= 0.1745329251994330E-01
_TOCM=  219474.6306700000    
_TODEBYE=  2.541580000000000    
_TOEV2006=  27.21139610000000    
_TOE= 0.4803242000000000E-09
_TOEV=  27.21138390000000    
_TOHERTZ2006=  6579683899900000.    
_TOHERTZ=  6579683920700000.    
_TOHZ2006=  6579683899900000.    
_TOHZ=  6579683920700000.    
_TOK2006=  315773.3000000000    
_TOK=  315774.7000000000    
_TOKCAL=  627.5096000000000    
_TOKELVIN2006=  315773.3000000000    
_TOKELVIN=  315774.7000000000    
_TOKJ=  2625.500000000000    
_TOKJOULE=  2625.500000000000    
_TOKG= 0.1660565586000000E-26
_ANG2006=  1.889725988578923    
_ANG=  1.889726131421507    
_ANGSTROM2006=  1.889725988578923    
_ANGSTROM=  1.889726131421507    
_RPAREF=  0.000000000000000    
_RPADISS=  0.000000000000000    
_IGNORE_UNDEF=  2.000000000000000    
_STRICTCHECK=  0.000000000000000    
_SEW_ONEEL=  0.000000000000000    
_CPPDONE=FALSE
_DKROLL_DONE=  0.000000000000000    
_FOCKDONE=TRUE
_GRADONE=FALSE
_HESSDONE=FALSE
_INTDONE=TRUE
_SCFDONE=TRUE
_MODUL_CUDA=FALSE
_MODUL_SLATER=FALSE
_MODUL_MRCC=FALSE
_MODUL_NBO6=FALSE
_MODUL_NECI=TRUE
_MRCC_EXEC=
_FITC_AO_SAVED=FALSE
_FITC_MO_SAVED=FALSE
_SHARED_FS=TRUE
_LSTYP=SEWARD
_INTYP=INTS
_GEOMTYP=ZMAT
_GRADTYP=ALASKA
_DIRECT=FALSE
_DKROLL=FALSE
_DKHO= -1.000000000000000    
_DKHP= -1.000000000000000    
_SYNCM=  0.000000000000000    
_DFTNAME=  0.000000000000000    
_DFTFUNC=  0.000000000000000    
_BASIS=USERDEF
_BASISSETS=
_ZSIGNX=
_ZSIGNY=
_ZSIGNZ=
_ZCENTRE=
_ZSYMEL=
_ZPLANE=
_ZUNIT=
_ZORIENT=  1.000000000000000    
_CHARGE=  1.000000000000000    
_SCFCHARGE=  1.000000000000000    
_MCCHARGE=  1.000000000000000    
_CICHARGE=  1.000000000000000    
_CCCHARGE=  1.000000000000000    
_NELEC=  10.00000000000000    
!NELEC=  10.00000000000000    
_SCFNELEC=  10.00000000000000    
_MCNELEC=  10.00000000000000    
_CINELEC=  10.00000000000000    
_CCNELEC=  10.00000000000000    
_SPIN=  10.00000000000000    
!SPIN=  0.000000000000000    
_SCFSPIN=  0.000000000000000    
_MCSPIN=  0.000000000000000    
_CISPIN=  0.000000000000000    
_CCSPIN=  0.000000000000000    
_STATE=  0.000000000000000    
_SCFSTATE=  0.000000000000000    
_MCSTATE=  0.000000000000000    
_CISTATE=  0.000000000000000    
_SYMMETRY=  0.000000000000000    
!SYMMETRY=  0.000000000000000    
_SCFSYMMETRY=  0.000000000000000    
_MCSYMMETRY=  0.000000000000000    
_CISYMMETRY=  0.000000000000000    
_CCSYMMETRY=  0.000000000000000    
_SCFSYMM=  0.000000000000000    
_MCSYMM=  0.000000000000000    
_CISYMM=  0.000000000000000    
_CCSYMM=  0.000000000000000    
_SCFSYM=  0.000000000000000    
_MCSYM=  0.000000000000000    
_CISYM=  0.000000000000000    
_CCSYM=  0.000000000000000    
_WEIGHT=  0.000000000000000    
_MCWEIGHT=  0.000000000000000    
_LQUANT=  0.000000000000000    
_MCLQUANT=  0.000000000000000    
_OPTCONV=  0.000000000000000    
_QSDSTEP=  0.000000000000000    
_QSDIRC=  0.000000000000000    
_PROGRAM=MULTI
_CPUSTEP=  1.140000000000000    
_SYSSTEP= 0.1100000000000000    
_WALLSTEP= 0.4300000000000000    
!PERT= 0.4300000000000000    
!DFMP2= 0.4300000000000000    
!DFSCF=  0.000000000000000    
!DFHFENERG=  0.000000000000000    
!SCSGRD=  0.000000000000000    
_ATCHARGE=  0.000000000000000    
_BASINP=  610.0000000000000    
_CARTESIAN=  610.0000000000000    
_CFIT=  610.0000000000000    
_CFIT_FRED=  610.0000000000000    
_CFIT_FRED_THR=  610.0000000000000    
_CHII2=  610.0000000000000    
_CHIRS=  610.0000000000000    
_COEFF=  610.0000000000000    
_CPU2IDX_CFIT=  610.0000000000000    
_CPU3IDX_CFIT=  610.0000000000000    
_CPUASMBL_CFIT=  610.0000000000000    
_CPUBLAS1=  610.0000000000000    
_CPUBLAS2=  610.0000000000000    
_CPUBLAS3=  610.0000000000000    
_CPUINT_DTRAF=  610.0000000000000    
_CPUSOLVE_CFIT=  610.0000000000000    
_CPUTOT=  1.600000000000000    
_CPUTR1_CFIT=  1.600000000000000    
_CPUTR2_CFIT=  1.600000000000000    
_CPUINV_CFIT=  1.600000000000000    
_CPUFIT_CFIT=  1.600000000000000    
_CPUTRANS_CFIT=  1.600000000000000    
_CPUSCREEN_CFIT=  1.600000000000000    
_CPUTRANS_DTRAF=  1.600000000000000    
_CPUTRA_DTRAF=  1.600000000000000    
_CPUTRIPL=  1.600000000000000    
_SYSTRIPL=  1.600000000000000    
_WALLTRIPL=  1.600000000000000    
_CPUCCSD=  1.600000000000000    
_SYSCCSD=  1.600000000000000    
_WALLCCSD=  1.600000000000000    
_CPUSORT=  1.600000000000000    
_SYSSORT=  1.600000000000000    
_WALLSORT=  1.600000000000000    
_CPUF12=  1.600000000000000    
_SYSF12=  1.600000000000000    
_WALLF12=  1.600000000000000    
_CPUF12B=  1.600000000000000    
_SYSF12B=  1.600000000000000    
_WALLF12B=  1.600000000000000    
_CPUTRANS=  1.600000000000000    
_SYSTRANS=  1.600000000000000    
_WALLTRANS=  1.600000000000000    
_CPU2EXT=  1.600000000000000    
_CPU3EXT=  1.600000000000000    
_CPU4EXT=  1.600000000000000    
_WALL2EXT=  1.600000000000000    
_WALL3EXT=  1.600000000000000    
_WALL4EXT=  1.600000000000000    
_DALTON=  1.600000000000000    
_DARW=  1.600000000000000    
_DECAY=  1.600000000000000    
_DELE_CFIT=  1.600000000000000    
_DELG_CFIT=  1.600000000000000    
_DELTA=  1.600000000000000    
_DFTEXFAC=  1.000000000000000    
_DFTFAC=  1.000000000000000    
_DFTFUN=  1.000000000000000    
_DFTFUNS=  1.000000000000000    
_DMEX=  1.000000000000000    
_DMEY=  1.000000000000000    
_DMEZ=  1.000000000000000    
_DMNX=  1.000000000000000    
_DMNY=  1.000000000000000    
_DMNZ=  1.000000000000000    
_DMSCF=  1.000000000000000    
_DMSCF_Efield=  1.000000000000000    
_DMSCF_I=  1.000000000000000    
_DMSCF_J=  1.000000000000000    
_DMSCF_K=  1.000000000000000    
_DMSCF_N1=  1.000000000000000    
_DMSCF_N2=  1.000000000000000    
_DMSCF_NUC=  1.000000000000000    
_DMSCF_T=  1.000000000000000    
_DMSCF_V=  1.000000000000000    
_DMX=  0.000000000000000    
_DMY=-0.5806417662389396E-09
_DMZ=-0.7382093915837509    
_DMX_SCF=  0.000000000000000    
_DMY_SCF=-0.8486992304681390E-14
_DMZ_SCF=-0.7954224137999922    
_DMZCOR=-0.7954224137999922    
_DM_RHO1=-0.7954224137999922    
_DM_RVAL=-0.7954224137999922    
_DUMMYATOMS=-0.7954224137999922    
_FREQUENCIES=-0.7954224137999922    
_EDISP=-0.7954224137999922    
_EEDISP=-0.7954224137999922    
_EINTRA=-0.7954224137999922    
_EINTRA_R12=-0.7954224137999922    
_EINTER_R12=-0.7954224137999922    
_EHOMO=-0.5048724273627947    
_EIONIC=-0.5048724273627947    
_ELUMO= 0.1427455773611555    
_EMP2= 0.1427455773611555    
_EMP2_SING= 0.1427455773611555    
_EMP2_TRIP= 0.1427455773611555    
_EMP2_SINGLES= 0.1427455773611555    
_EMP2_SINGLES_D= 0.1427455773611555    
_EMP2_SCS= 0.1427455773611555    
_EMP2_STRONG= 0.1427455773611555    
_EMP2_CLOSE= 0.1427455773611555    
_EMP2_WEAK= 0.1427455773611555    
_EMP2_DIST= 0.1427455773611555    
_ECSING= 0.1427455773611555    
_ECTRIP= 0.1427455773611555    
_ECSINGLES= 0.1427455773611555    
_EF12= 0.1427455773611555    
_EF12_SING= 0.1427455773611555    
_EF12_TRIP= 0.1427455773611555    
_ECSING_F12= 0.1427455773611555    
_ECTRIP_F12= 0.1427455773611555    
_EF12_RHFRELAX= 0.1427455773611555    
_EF12_RHFRELAX_C= 0.1427455773611555    
_EF12_CONVSUPPRS= 0.1427455773611555    
_EF12_CONVSUPPRT= 0.1427455773611555    
_EF12_SINGLES= 0.1427455773611555    
_EF12_SINGLES_C= 0.1427455773611555    
_EF12_SCS= 0.1427455773611555    
_EF12_STRONG= 0.1427455773611555    
_EF12_CLOSE= 0.1427455773611555    
_EF12_WEAK= 0.1427455773611555    
_EF12_DIST= 0.1427455773611555    
_EF12S= 0.1427455773611555    
_EF12S_SING= 0.1427455773611555    
_EF12S_TRIP= 0.1427455773611555    
_EF12S_SCS= 0.1427455773611555    
_EF12S_STRONG= 0.1427455773611555    
_EF12S_CLOSE= 0.1427455773611555    
_EF12S_WEAK= 0.1427455773611555    
_EF12S_DIST= 0.1427455773611555    
_EF12D= 0.1427455773611555    
_EF12D_SING= 0.1427455773611555    
_EF12D_TRIP= 0.1427455773611555    
_EF12D_SCS= 0.1427455773611555    
_EF12D_STRONG= 0.1427455773611555    
_EF12D_CLOSE= 0.1427455773611555    
_EF12D_WEAK= 0.1427455773611555    
_EF12D_DIST= 0.1427455773611555    
_EF12F= 0.1427455773611555    
_EF12F_SING= 0.1427455773611555    
_EF12F_TRIP= 0.1427455773611555    
_EF12F_SCS= 0.1427455773611555    
_EF12F_STRONG= 0.1427455773611555    
_EF12F_CLOSE= 0.1427455773611555    
_EF12F_WEAK= 0.1427455773611555    
_EF12F_DIST= 0.1427455773611555    
_EMP2R12_2AD= 0.1427455773611555    
_EMP2R12_2A= 0.1427455773611555    
_EMP2R12_2AP= 0.1427455773611555    
_EMP2R12_2SAD= 0.1427455773611555    
_EMP2R12_2SA= 0.1427455773611555    
_EMP2R12_2SAP= 0.1427455773611555    
_EMP2R12_2B= 0.1427455773611555    
_EMP2_R12= 0.1427455773611555    
_EMP2_R12_A= 0.1427455773611555    
_EMP2_R12_AP= 0.1427455773611555    
_EMP2_R12_AD= 0.1427455773611555    
_EMP2_R12_2A= 0.1427455773611555    
_EMP2_R12_2SA= 0.1427455773611555    
_EMP2_R12_2SAP= 0.1427455773611555    
_EMP2_R12_2SAD= 0.1427455773611555    
_EMP2_R12_2AP= 0.1427455773611555    
_EMP2_R12_DIAG= 0.1427455773611555    
_EMP2_R12_STRONG= 0.1427455773611555    
_EMP2_R12_CLOSE= 0.1427455773611555    
_EMP2_R12_WEAK= 0.1427455773611555    
_EMP2_R12_DIST= 0.1427455773611555    
_EMP2_R12_SING= 0.1427455773611555    
_EMP2_R12_TRIP= 0.1427455773611555    
_EMP2_R12_SCS= 0.1427455773611555    
_EMP2R= 0.1427455773611555    
_EMP3= 0.1427455773611555    
_EMP3R= 0.1427455773611555    
_EMP4= 0.1427455773611555    
_ENERGC= 0.1427455773611555    
_ENERGCL= 0.1427455773611555    
_ENERG_CC= 0.1427455773611555    
_ENERG_CV= 0.1427455773611555    
_ENERG_VV= 0.1427455773611555    
_ENERGD= 0.1427455773611555    
_ENERGD0= 0.1427455773611555    
_ENERGD1= 0.1427455773611555    
_ENERGD2= 0.1427455773611555    
_ENERGD3= 0.1427455773611555    
_ENERGD4= 0.1427455773611555    
_ENERGP= 0.1427455773611555    
_ENERGP0= 0.1427455773611555    
_ENERGP1= 0.1427455773611555    
_ENERGP2= 0.1427455773611555    
_ENERGP3= 0.1427455773611555    
_ENERGP4= 0.1427455773611555    
_ENERGR= 0.1427455773611555    
_ENERGRR= 0.1427455773611555    
_ENERGS= 0.1427455773611555    
_ENERGT= 0.1427455773611555    
_ENERGU= 0.1427455773611555    
_ENERGW= 0.1427455773611555    
_ENERGY= -76.11028711035884    
_ECORR= -76.11028711035884    
_ECORR_SZABO= -76.11028711035884    
_ECORR_TILDE= -76.11028711035884    
_ECORR_ACFDT= -76.11028711035884    
_ECORR_ACFDX= -76.11028711035884    
_ECORR_DBAR= -76.11028711035884    
_ECORR_DBAX= -76.11028711035884    
_ECORR_RCCD= -76.11028711035884    
_ECORR_DRCCD= -76.11028711035884    
_ECORR_SOSEX= -76.11028711035884    
_ECORR_PLASM= -76.11028711035884    
_ECORR_LOGM= -76.11028711035884    
_ECORR_LSOX= -76.11028711035884    
_ECORR_LRPA= -76.11028711035884    
_ENERGY_MP= -76.11028711035884    
_ECBS= -76.11028711035884    
_ECBSD= -76.11028711035884    
_ENUC=  9.240247165313153    
_EPDIST=  9.240247165313153    
_EPDIST_SING=  9.240247165313153    
_EPDIST_TRIP=  9.240247165313153    
_EPDIST_R12=  9.240247165313153    
_EPDIST_SING_R12=  9.240247165313153    
_EPDIST_TRIP_R12=  9.240247165313153    
_EPSUM=  9.240247165313153    
_EPSUM_R12=  9.240247165313153    
_EPS1= -20.41115177046896    
_EPS2=-0.5067299539643397    
_EPS3=-0.5067299539643397    
_EPS4=-0.5067299539643397    
_EPS5=-0.5067299539643397    
_EPS6=-0.5067299539643397    
_EPS7=-0.5067299539643397    
_EPS8=-0.5067299539643397    
_EREL=-0.5067299539643397    
_FLOPBLAS1=-0.5067299539643397    
_FLOPBLAS2=-0.5067299539643397    
_FLOPBLAS3=-0.5067299539643397    
_FLOPDGM=-0.5067299539643397    
_FLOPDGV=-0.5067299539643397    
_FLOPMXM=-0.5067299539643397    
_FLOPMXV=-0.5067299539643397    
_FREQSTEP=-0.5067299539643397    
!RS2GRSTATE=-0.5067299539643397    
!RS2GRSYM=-0.5067299539643397    
_GRADENERG=-0.5067299539643397    
_GRADEXFAC=  9999.000000000000    
_GRADMETHOD=TRUE
_NMRMETHOD=  0.000000000000000    
_GRADRECORD=  0.000000000000000    
_VIRIAL=  0.000000000000000    
_GRADX=  0.000000000000000    
_GRADY=  0.000000000000000    
_GRADZ=  0.000000000000000    
_GRADVAR=  0.000000000000000    
_GRID=  0.000000000000000    
_GRID_FREEZE=  0.000000000000000    
!GRID_FREEZE= -1.000000000000000    
!GRIDREC= -1.000000000000000    
_GRID_WEIGHT_CUT= -1.000000000000000    
_GRID_BLOCKSIZE= -1.000000000000000    
_GRID_SPARSITY= -1.000000000000000    
_GRID_RMAX= -1.000000000000000    
_GTOTAL= -1.000000000000000    
_HDIA= -1.000000000000000    
_HDIACI= -1.000000000000000    
_HEAT= -1.000000000000000    
_HTOTAL= -1.000000000000000    
_INCR_CORR= -1.000000000000000    
_INCR_COUNT= -1.000000000000000    
_INCR_READY= -1.000000000000000    
_ISCHI= -1.000000000000000    
_ITERATIONS=  3.000000000000000    
!INTCACHE=  3.000000000000000    
_KFIT=  3.000000000000000    
_LASTNELEC=  8.000000000000000    
_LASTSPIN=  0.000000000000000    
_LASTSYM=  1.000000000000000    
_LL=  1.000000000000000    
_MASSV=  1.000000000000000    
_MIN_ITER=  1.000000000000000    
_MIXANG=  1.000000000000000    
_MIXANGCI=  1.000000000000000    
_MPP_PROG=  0.000000000000000    
_MSENERGY=  0.000000000000000    
_NACME=  0.000000000000000    
_NBAS_CFIT=  0.000000000000000    
_NEWREC=  0.000000000000000    
_NGRID=  0.000000000000000    
_NPROC_MPP=  1.000000000000000    
_NPROC_MPPX=  1.000000000000000    
_NPROC_SMP=  94.00000000000000    
_NUMSTEP=  0.000000000000000    
_OPNUC=  0.000000000000000    
_OPTCONVMX=  0.000000000000000    
_OPTCONVRMS=  0.000000000000000    
_OPTGRAD=  0.000000000000000    
_OPTGRADMX=  0.000000000000000    
_OPTGRADRMS=  0.000000000000000    
_OPTRMSMAX=  0.000000000000000    
_OPTSTEP=  0.000000000000000    
_ORBITAL=  2140.200000000000    
_PAOINT_CFIT=  2140.200000000000    
_PENALTY=  2140.200000000000    
_PH1INT_CFIT=  2140.200000000000    
_PH1VEC_CFIT=  2140.200000000000    
_PH2INT_CFIT=  2140.200000000000    
_PHASE=  2140.200000000000    
_PI=  3.141592653589793    
_PMOINT_CFIT=  3.141592653589793    
_PMOVEC_CFIT=  3.141592653589793    
_POISSON_ECORR=  3.141592653589793    
_POISSON_ERROR=  3.141592653589793    
_POLXX=  3.141592653589793    
_POLXY=  3.141592653589793    
_POLXZ=  3.141592653589793    
_POLYY=  3.141592653589793    
_POLYZ=  3.141592653589793    
_POLZZ=  3.141592653589793    
_POLYX=  3.141592653589793    
_POLZX=  3.141592653589793    
_POLZY=  3.141592653589793    
_POVINT_CFIT=  3.141592653589793    
_ROOT=  3.141592653589793    
_RPDIST=  3.141592653589793    
_RPMIN=  3.141592653589793    
_RPMAX=  3.141592653589793    
_EPCON=  3.141592653589793    
_ECDIAG=  3.141592653589793    
_EPDIAG=  3.141592653589793    
!MCACT=  5.000000000000000    
!MCCLOSED=  1.000000000000000    
!MCFREEZE=  0.000000000000000    
!MCMS2=  0.000000000000000    
!MCNEL=  8.000000000000000    
!MCNSTSYM=  1.000000000000000    
!MCSTATE=  1.000000000000000    
!MCSYM=  1.000000000000000    
!MCWEIGHT=  1.000000000000000    
_SEIG_MIN= 0.2455817034409253E-02
_SEWPROP=TRUE
_SMAT=TRUE
_SMATCI=TRUE
_SSQUARED=TRUE
_STATUS=  1.000000000000000    
_SYSBLAS1=  1.000000000000000    
_SYSBLAS2=  1.000000000000000    
_SYSBLAS3=  1.000000000000000    
_SYSTEM_RC=  1.000000000000000    
_SYSTOT= 0.1600000000000000    
_T1DIAG= 0.1600000000000000    
_D1DIAG= 0.1600000000000000    
_TASK= 0.1600000000000000    
_TROV= 0.1600000000000000    
_HMAT= 0.1600000000000000    
_UMAT= 0.1600000000000000    
_UMATCI= 0.1600000000000000    
_VERSION=  2012001.000000000    
_WALLBLAS1=  2012001.000000000    
_WALLBLAS2=  2012001.000000000    
_WALLBLAS3=  2012001.000000000    
_WALLTOT= 0.9399999999999999    
_ZPE= 0.9399999999999999    
!DFBASIS_COUL= 0.9399999999999999    
!DFBASIS_EXCH= 0.9399999999999999    
!DFBASIS_MP2= 0.9399999999999999    
!DFBASIS_MC= 0.9399999999999999    
!DFBASIS_F12K= 0.9399999999999999    
!DFBASIS_CCSD= 0.9399999999999999    
!RIBASIS_MP2= 0.9399999999999999    
!RIBASIS_EXCH= 0.9399999999999999    
_DATE=16-Apr-23
_LASTORB=MCSCF
_MACHINE=Linux-4.18.0-372.26.1.el8_6.x86_64/utf-asus3.hpc.troja.mff.cuni.cz(x86_64) (4 PROC) 64 bit serial version
_METHODC=
_METHODT=
_OUTPUT=/home/houfek/ukrmol-scripts/examples/H2O-electron/my_output/H2O/cc-pVTZ.CAS.e-.1frozen.6active.5virtual.5states.r10.Cs.sym_stretch/geom2/outputs/target.molpro.out
_PGROUP=Cs
_SEMI=
_TIME=14:46:31
_ANSATZ=
_LIBMOL=/usr/local/molpro_paralel/molpros_2012_1_Linux_x86_64_i8/lib/
_VDIAG=
_UDIAG=
!AOINTADDSC=
_TRANSFORM_FORCE=
_SOLVE_ITER=
_VSCF_FREQ=
_VMCSCF_FREQ=
_VCI_FREQ=
_VMP2_FREQ=
_VSCF_INTENS=
_VMCSCF_INTENS=
_VCI_INTENS=
_VMP2_INTENS=
_VIB_PROG=
!EREF=
!VIBCNT=  0.000000000000000    
!RGHFCNT=  0.000000000000000    
!SURFREC=  0.000000000000000    
!POLYREC=  0.000000000000000    
!DIPREC=  0.000000000000000    
!VSCFREC=  0.000000000000000    
!VCIREC=  0.000000000000000    
!PVCIREC=  0.000000000000000    
!VMP2REC=  0.000000000000000    
!VMCSCFREC=  0.000000000000000    
!VMRCIREC=  0.000000000000000    
!VIBINFO=  0.000000000000000    
!GAREC=  0.000000000000000    
!SCFORB=  21012.00000000000    
!MCORB=  21402.00000000000    
!CIOCC=  21402.00000000000    
!CICORE=  21402.00000000000    
!CICLOS=  21402.00000000000    
!UNO_OCC=  21402.00000000000    
!UNO_CLOSED=  21402.00000000000    
!CINSTSYM=  21402.00000000000    
!CIISTSYM=  21402.00000000000    
!CIISTMS2=  21402.00000000000    
!CIISTNEL=  21402.00000000000    
!CIMS2=  21402.00000000000    
!NEWMOL= -1.000000000000000    
!NEWSYM= -1.000000000000000    
!NEWORIENT= -1.000000000000000    
_SLFILES=slscratch
_NGSSTO=  9.000000000000000    
_SIN=SIN
_COS=COS
_TAN=TAN
_ACOS=ACOS
_ASIN=ASIN
_ATAN=ATAN
_COSH=COSH
_SINH=SINH
_TANH=TANH
_ABS=ABS
_MOD=MOD
_ERF=ERF
_REFC=REFC
_ERFC=ERFC
_HYPOT=HYPOT
_J0=J0
_J1=J1
_JN=JN
_GAMMA=GAMMA
_LGAMMA=LGAMMA
_Y0=Y0
_Y1=Y1
_YN=YN
_EXP=EXP
_LOG=LOG
_LOG10=LOG10
_SQRT=SQRT
_INT=INT
_NINT=NINT
_MAX=MAX
_MIN=MIN
_COSMO=  0.000000000000000    
_COSMOIT=  0.000000000000000    
_COSMOES=  0.000000000000000    
_COSMOEDS=  0.000000000000000    
_COSMOEC=  0.000000000000000    
_COSMOEDCORR=  0.000000000000000    
_FEPSI=  1.000000000000000    
_SL_IsMM=  0.000000000000000    
_SL_NSYM=  2.000000000000000    
_SL_System_BitSw=  0.000000000000000    
_SL_Unique_atoms=  0.000000000000000    
_SL_Last_energy=  0.000000000000000    
_SL_GRAD=  0.000000000000000    
_SL_MAXUPD_Hess=  5.000000000000000    
_SL_N_PRINT_COD=  5.000000000000000    
_SL_PRINT_CODES=  0.000000000000000    
_SL_BasType=  0.000000000000000    
_SL_Energy_Pred=  0.000000000000000    
_SL_New_Coords=  0.000000000000000    
_SL_Total_Nuclea=  0.000000000000000    
_SL_Highest_Mltp=  0.000000000000000    
_SL_Ref_Geom=  0.000000000000000    
_SL_Symmetry_ope=  1.000000000000000    
_SL_agrad=  0.000000000000000    
_SL_GrdMax=  0.000000000000000    
_SL_GrdNorm=  0.000000000000000    
_SL_GrdRMS=  0.000000000000000    
_CONFIG=  0.000000000000000    
_OCC=  0.000000000000000    
_CORE=  0.000000000000000    
_CLOSED=  0.000000000000000    
_SCFOCC=  0.000000000000000    
_SCFCLOSED=  0.000000000000000    
_SCFCORE=  0.000000000000000    
_MCOCC=  0.000000000000000    
_MCCLOSED=  0.000000000000000    
_MCFROZEN=  0.000000000000000    
_MCCORE=  0.000000000000000    
_CIOCC=  0.000000000000000    
_CICLOSED=  0.000000000000000    
_CICORE=  0.000000000000000    
_CCOCC=  0.000000000000000    
_CCCLOSED=  0.000000000000000    
_CCCORE=  0.000000000000000    
_SRXC=  0.000000000000000    
_SRC=  0.000000000000000    
_SRX=  0.000000000000000    
_SRH=  0.000000000000000    
_E_EXCHANGE=  0.000000000000000    
!LATTICE= -1.000000000000000    
!NEWLATTICE=  0.000000000000000    
!LATGRAD_VAR=FALSE
!SEW_LATTICE=  1.000000000000000    
_LATGRADX=  1.000000000000000    
_LATGRADY=  1.000000000000000    
_LATGRADZ=  1.000000000000000    
!SCALTABINIT=  1.000000000000000    
!LOCAL=  0.000000000000000    
!SAVEOCC=  0.000000000000000    
!SAVEDOM= -1.000000000000000    
!RESTDOM= -1.000000000000000    
!SAVEDOM_HF= -1.000000000000000    
!RESTDOM_HF= -1.000000000000000    
!HESSREC=  0.000000000000000    
!FREQREC=  0.000000000000000    
!NMODREC=  0.000000000000000    
!GTASKS=  0.000000000000000    
!HTASKS=  0.000000000000000    
!THRCHG= 0.1000000000000000    
!DEBUG= -1.000000000000000    
!CFIT_CPHF=  0.000000000000000    
!RDOMAUX_CPHF=  3.000000000000000    
!THRAO_CPHF= 0.1000000000000000E-09
!THRMO_CPHF= 0.1000000000000000E-08
!THROV_CPHF= 0.1000000000000000E-11
!THRSW_CPHF= 0.1000000000000000E-09
!THRPROD_CPHF= 0.1000000000000000E-08
!THRAOPR_CPHF= 0.1000000000000000E-11
!CFIT_SCFGRD=  0.000000000000000    
!RDOMAUX_SCFGRD=  5.000000000000000    
!THRAO_SCFGRD= 0.1000000000000000E-09
!THRMO_SCFGRD= 0.1000000000000000E-08
!THROV_SCFGRD= 0.1000000000000000E-11
!THRSW_SCFGRD= 0.1000000000000000E-09
!THRPROD_SCFGRD= 0.1000000000000000E-08
!THRAOPR_SCFGRD= 0.1000000000000000E-11
!LOCFIT_SCF=  0.000000000000000    
!LOCFIT_MP2= -1.000000000000000    
_RIDOM=  0.000000000000000    
_FCI_METHOD=  0.000000000000000    
!CC2_METHOD=  0.000000000000000    
_BASIS2006=FALSE
_SVDDEL= -1.000000000000000    
_SVDDELA= -1.000000000000000    
_SVDDELP= -1.000000000000000    
_SVDDELF= -1.000000000000000    
_SVDDELS= -1.000000000000000    
_SVDDEL_ABS= -1.000000000000000    
_SVDDELA_ABS= -1.000000000000000    
_SVDDELP_ABS= -1.000000000000000    
_SVDDELF_ABS= -1.000000000000000    
_SVDDELS_ABS= -1.000000000000000    
_MAXBASIS=  0.000000000000000    
!OPT_CONICAL=  0.000000000000000    
!CLEARSP_JGRID=  0.000000000000000    
_SHLDTENSOR=  0.000000000000000    
_SHLDTENSORDIA=  0.000000000000000    
_SHLDTENSORPARA=  0.000000000000000    
_OMEGAF_S=  0.000000000000000    
_OMEGAF_T=  0.000000000000000    
_DIPMOM_GS=  0.000000000000000    
_DIPMOM_GS_REL=  0.000000000000000    
_DIPMOM_SING=  0.000000000000000    
_DIPMOM_SING_REL=  0.000000000000000    
_DIPMOM_TRIP=  0.000000000000000    
_DIPMOM_TRIP_REL=  0.000000000000000    
_4EXT_NDISKS=  1.000000000000000    
_RE=  1.000000000000000    
_BE=  1.000000000000000    
_AE=  1.000000000000000    
_WE=  1.000000000000000    
_WEXE=  1.000000000000000    
_WEYE=  1.000000000000000    
_METHOD=  1.000000000000000    
_C0=  1.000000000000000    
_C0R=  1.000000000000000    
_REGRESSION_SLOPE=  1.000000000000000    
_REGRESSION_INTERCEPT=  1.000000000000000    
_LOWERBOUNDMIN_SLOPE=  1.000000000000000    
_LOWERBOUNDMIN_INTERCEPT=  1.000000000000000    
_UPPERBOUNDMIN_SLOPE=  1.000000000000000    
_UPPERBOUNDMIN_INTERCEPT=  1.000000000000000    
_LOWERBOUNDMAX_SLOPE=  1.000000000000000    
_LOWERBOUNDMAX_INTERCEPT=  1.000000000000000    
_UPPERBOUNDMAX_SLOPE=  1.000000000000000    
_UPPERBOUNDMAX_INTERCEPT=  1.000000000000000    
!ZMP=  0.000000000000000    
_MAXIT_ZMP=  500.0000000000000    
_MAXDIS_ZMP=  100.0000000000000    
_ACCU_ZMP=  14.00000000000000    
_SHIFTA_ZMP= -100.0000000000000    
!EMBEDFLAG=  1.000000000000000    
!EMBED=FALSE
!EMBED_F12=FALSE
!EMBEDNUC=  0.000000000000000    
_EMBEDENERGY=  0.000000000000000    
_KSPACETIME=  0.000000000000000    
_RSPACETIME=  0.000000000000000    
!EMBED_DFC=FALSE
!NUM_VOIDS=  0.000000000000000    
_IBODY=  0.000000000000000    
_EMBE_TOTAL=  0.000000000000000    
_EMBE_HF=  0.000000000000000    
_EMBE_CORR=  0.000000000000000    
!EDFT=  0.000000000000000    
_IFASTLATGRAD=  0.000000000000000    
_SINDEX=  0.000000000000000    
_F3SIZE=  0.000000000000000    
_F4SIZE=  0.000000000000000    
_AVDOM=  0.000000000000000    
_AVDOMS=  0.000000000000000    
!CPP_PROG=  0.000000000000000    
_FCIQMC_ERR=  0.000000000000000    
METHOD=CASSCF
GX1=  0.000000000000000    
GY1=  0.000000000000000    
GZ1= 0.1233262760000000    
GX2=  0.000000000000000    
GY2=  1.423048877000000    
GZ2=-0.9789132140000000    
GX3=  0.000000000000000    
GY3= -1.423048877000000    
GZ3=-0.9789132140000000    
[Atoms] Angs
O     1    8         0.0000000000        0.0000000000        0.0652614545
H     2    1         0.0000000000        0.7530450330       -0.5180185624
H     3    1         0.0000000000       -0.7530450330       -0.5180185624
[GTO]
  1 0
 s    8  1.00
  0.1533000000D+05  0.5201983071D-03
  0.2299000000D+04  0.4023344781D-02
  0.5224000000D+03  0.2072908333D-01
  0.1473000000D+03  0.8108232708D-01
  0.4755000000D+02  0.2362263521D+00
  0.1676000000D+02  0.4435182094D+00
  0.6207000000D+01  0.3586705887D+00
  0.6882000000D+00 -0.8349797237D-02
 s    8  1.00
  0.1533000000D+05 -0.1972360117D-03
  0.2299000000D+04 -0.1535010700D-02
  0.5224000000D+03 -0.7951183914D-02
  0.1473000000D+03 -0.3211345289D-01
  0.4755000000D+02 -0.1002696430D+00
  0.1676000000D+02 -0.2340471118D+00
  0.6207000000D+01 -0.3014109278D+00
  0.6882000000D+00  0.1034919650D+01
 s    1  1.00
  0.1752000000D+01  0.1000000000D+01
 s    1  1.00
  0.2384000000D+00  0.1000000000D+01
 p    3  1.00
  0.3446000000D+02  0.4116348957D-01
  0.7749000000D+01  0.2577628359D+00
  0.2280000000D+01  0.8024192744D+00
 p    1  1.00
  0.7156000000D+00  0.1000000000D+01
 p    1  1.00
  0.2140000000D+00  0.1000000000D+01
 d    1  1.00
  0.2314000000D+01  0.1000000000D+01
 d    1  1.00
  0.6450000000D+00  0.1000000000D+01
 f    1  1.00
  0.1428000000D+01  0.1000000000D+01
  
  2 0
 s    3  1.00
  0.3387000000D+02  0.2549486323D-01
  0.5095000000D+01  0.1903627659D+00
  0.1159000000D+01  0.8521620222D+00
 s    1  1.00
  0.3258000000D+00  0.1000000000D+01
 s    1  1.00
  0.1027000000D+00  0.1000000000D+01
 p    1  1.00
  0.1407000000D+01  0.1000000000D+01
 p    1  1.00
  0.3880000000D+00  0.1000000000D+01
 d    1  1.00
  0.1057000000D+01  0.1000000000D+01
  
  3 0
 s    3  1.00
  0.3387000000D+02  0.2549486323D-01
  0.5095000000D+01  0.1903627659D+00
  0.1159000000D+01  0.8521620222D+00
 s    1  1.00
  0.3258000000D+00  0.1000000000D+01
 s    1  1.00
  0.1027000000D+00  0.1000000000D+01
 p    1  1.00
  0.1407000000D+01  0.1000000000D+01
 p    1  1.00
  0.3880000000D+00  0.1000000000D+01
 d    1  1.00
  0.1057000000D+01  0.1000000000D+01
 
 
[MO]
 Sym=      1.1
 Ene=     -20.4112
 Spin= Alpha
 Occup=    2.000000
1 0.97282398353041
2 -0.044060936837605
3 0.031894325193556
4 -0.031708261578056
5 0.0
6 -0.000000000277290
7 -0.013233308778275
8 0.0
9 -0.000000000324630
10 -0.011823712995171
11 0.0
12 -0.000000000150275
13 -0.011603147879683
14 -0.000057928149960
15 -0.000157540855221
16 0.000215469005181
17 0.0
18 0.0
19 0.000000000012418
20 0.000410019373005
21 -0.000884101486798
22 0.000474082113793
23 0.0
24 0.0
25 0.000000000017325
26 0.0
27 -0.000000000002395
28 -0.000095444720581
29 0.0
30 0.000000000002801
31 -0.000056569480215
32 0.0
33 0.000000000000412
34 0.000184622010202
35 0.0
36 -0.001688536568605
37 0.002660542764699
38 0.000646016839230
39 0.0
40 0.000068214929952
41 -0.000437019808504
42 0.0
43 -0.000759033238887
44 -0.000614662264569
45 0.000049774889101
46 0.000104664995891
47 -0.000154439884992
48 0.0
49 0.0
50 0.000242997708267
51 -0.001688536320354
52 0.002660543128818
53 0.000646016907564
54 0.0
55 -0.000068214910306
56 -0.000437019782977
57 0.0
58 0.000759033279233
59 -0.000614662218080
60 0.000049774881548
61 0.000104664999465
62 -0.000154439881013
63 0.0
64 0.0
65 -0.000242997696576
 Sym=      1.2
 Ene=      -0.5067
 Spin= Alpha
 Occup=    1.999532
1 0.0
2 0.0
3 0.0
4 0.0
5 0.35646027572307
6 0.0
7 0.0
8 0.44509311188795
9 0.0
10 0.0
11 0.37569944044216
12 0.0
13 0.0
14 0.0
15 0.0
16 0.0
17 -0.000000000008484
18 -0.005327720892216
19 0.0
20 0.0
21 0.0
22 0.0
23 -0.000000000026802
24 -0.017809909439773
25 0.0
26 -0.004187856475189
27 0.0
28 0.0
29 0.003863064557521
30 0.0
31 0.0
32 0.001755534497599
33 0.0
34 0.0
35 -0.000000000003366
36 0.0
37 0.0
38 0.0
39 0.010188376789185
40 0.0
41 0.0
42 0.030539663555589
43 0.0
44 0.0
45 0.0
46 0.0
47 0.0
48 -0.004088038406582
49 0.002868989690527
50 0.0
51 0.0
52 0.0
53 0.0
54 0.010188376789290
55 0.0
56 0.0
57 0.030539663606273
58 0.0
59 0.0
60 0.0
61 0.0
62 0.0
63 0.004088038408252
64 0.002868989692805
65 0.0
 Sym=      2.1
 Ene=      -1.2360
 Spin= Alpha
 Occup=    1.999154
1 0.075791406824214
2 0.51602495410324
3 0.14232322383486
4 0.39476412750082
5 0.0
6 0.000000002398095
7 0.13990752682703
8 0.0
9 0.000000002944692
10 0.16388959844743
11 0.0
12 0.000000001424007
13 0.14350376860647
14 -0.000074755573932
15 0.002464626147169
16 -0.002389870573237
17 0.0
18 0.0
19 -0.000000000105011
20 0.001508902454617
21 0.006414426587726
22 -0.007923329042343
23 0.0
24 0.0
25 -0.000000000159678
26 0.0
27 0.000000000020417
28 0.001069750567950
29 0.0
30 -0.000000000022190
31 -0.000305338289008
32 0.0
33 -0.000000000005202
34 -0.001129882704335
35 0.0
36 0.024581123646756
37 -0.022293001017732
38 -0.011166425735485
39 0.0
40 -0.003302271531293
41 0.006560685494409
42 0.0
43 0.004142606413949
44 0.010991798508571
45 0.000022658771996
46 -0.001221290728764
47 0.001198631956768
48 0.0
49 0.0
50 -0.001229301314050
51 0.024581121319963
52 -0.022293004360618
53 -0.011166426274114
54 0.0
55 0.003302271355632
56 0.006560685264515
57 0.0
58 -0.004142606800264
59 0.010991798067693
60 0.000022658838327
61 -0.001221290758833
62 0.001198631920506
63 0.0
64 0.0
65 0.001229301213671
 Sym=      3.1
 Ene=      -0.8224
 Spin= Alpha
 Occup=    1.979525
1 0.005736822847098
2 -0.13888639091747
3 -0.033584582533465
4 0.076445408212848
5 0.0
6 0.000000004108774
7 0.28609142010955